/*--------------------------------*- C++ -*----------------------------------*\
| =========                 |                                                 |
| \\      /  F ield         | OpenFOAM: The Open Source CFD Toolbox           |
|  \\    /   O peration     | Version:  2312                                  |
|   \\  /    A nd           | Website:  www.openfoam.com                      |
|    \\/     M anipulation  |                                                 |
\*---------------------------------------------------------------------------*/
FoamFile
{
    version     2.0;
    format      ascii;
    arch        "LSB;label=32;scalar=64";
    class       surfaceScalarField;
    location    "448";
    object      phi;
}
// * * * * * * * * * * * * * * * * * * * * * * * * * * * * * * * * * * * * * //

dimensions      [0 3 -1 0 0 0 0];

oriented        oriented;

internalField   nonuniform List<scalar> 
333375
(
9.35153e-09
9.35153e-09
1.66568e-08
-1.05971e-08
-1.05971e-08
7.98536e-09
9.10307e-09
1.69666e-08
-1.02713e-08
6.57411e-09
8.91972e-09
1.72284e-08
-1.00785e-08
5.14055e-09
8.78899e-09
1.74431e-08
-9.95464e-09
3.68802e-09
8.69485e-09
1.76105e-08
-9.86435e-09
2.21977e-09
8.63032e-09
1.77304e-08
-9.8006e-09
7.41143e-10
8.59251e-09
1.78028e-08
-9.76269e-09
-7.41143e-10
8.58006e-09
1.78271e-08
-9.75014e-09
-2.21977e-09
8.59251e-09
1.78028e-08
-9.76269e-09
-3.68802e-09
8.63032e-09
1.77304e-08
-9.8006e-09
-5.14055e-09
8.69485e-09
1.76105e-08
-9.86435e-09
-6.57411e-09
8.78899e-09
1.74431e-08
-9.95464e-09
-7.98536e-09
8.91972e-09
1.72284e-08
-1.00785e-08
-9.35153e-09
9.10307e-09
1.69666e-08
-1.02713e-08
9.35153e-09
1.66568e-08
-1.05971e-08
-1.05971e-08
9.10307e-09
7.98536e-09
1.69666e-08
-1.02713e-08
7.81637e-09
7.81637e-09
1.72638e-08
6.45743e-09
7.67234e-09
1.75159e-08
5.05796e-09
7.55523e-09
1.77226e-08
3.63173e-09
7.46679e-09
1.78837e-08
2.18678e-09
7.40573e-09
1.79992e-08
7.3026e-10
7.37e-09
1.80689e-08
-7.3026e-10
7.35824e-09
1.80923e-08
-2.18678e-09
7.37e-09
1.80689e-08
-3.63173e-09
7.40573e-09
1.79992e-08
-5.05796e-09
7.46679e-09
1.78837e-08
-6.45744e-09
7.55523e-09
1.77226e-08
-7.81637e-09
7.67234e-09
1.75159e-08
-9.10307e-09
7.81637e-09
1.72638e-08
7.98536e-09
1.69666e-08
-1.02713e-08
8.91972e-09
6.57411e-09
1.72284e-08
-1.00785e-08
7.67234e-09
6.45743e-09
1.75159e-08
6.35354e-09
6.35354e-09
1.77604e-08
4.98553e-09
6.26003e-09
1.79609e-08
3.58371e-09
6.1854e-09
1.81172e-08
2.1592e-09
6.13251e-09
1.82292e-08
7.21255e-10
6.10118e-09
1.82968e-08
-7.21255e-10
6.09082e-09
1.83195e-08
-2.1592e-09
6.10118e-09
1.82968e-08
-3.58371e-09
6.13251e-09
1.82292e-08
-4.98553e-09
6.1854e-09
1.81172e-08
-6.35354e-09
6.26003e-09
1.79609e-08
-7.67234e-09
6.35354e-09
1.77604e-08
-8.91972e-09
6.45744e-09
1.75159e-08
6.57411e-09
1.72284e-08
-1.00785e-08
8.78899e-09
5.14055e-09
1.74431e-08
-9.95464e-09
7.55523e-09
5.05796e-09
1.77226e-08
6.26003e-09
4.98553e-09
1.79609e-08
4.91618e-09
4.91618e-09
1.81563e-08
3.53629e-09
4.85842e-09
1.83087e-08
2.13163e-09
4.81642e-09
1.84178e-08
7.12206e-10
4.79117e-09
1.84837e-08
-7.12207e-10
4.78276e-09
1.85059e-08
-2.13163e-09
4.79117e-09
1.84837e-08
-3.53629e-09
4.81642e-09
1.84178e-08
-4.91618e-09
4.85842e-09
1.83087e-08
-6.26003e-09
4.91618e-09
1.81563e-08
-7.55523e-09
4.98553e-09
1.79609e-08
-8.78899e-09
5.05796e-09
1.77226e-08
5.14055e-09
1.74431e-08
-9.95464e-09
8.69485e-09
3.68802e-09
1.76105e-08
-9.86435e-09
7.46679e-09
3.63173e-09
1.78837e-08
6.1854e-09
3.58371e-09
1.81172e-08
4.85842e-09
3.53629e-09
1.83087e-08
3.49574e-09
3.49574e-09
1.84579e-08
2.1077e-09
3.46568e-09
1.85649e-08
7.04309e-10
3.44739e-09
1.86295e-08
-7.04309e-10
3.44127e-09
1.86512e-08
-2.1077e-09
3.44739e-09
1.86295e-08
-3.49574e-09
3.46568e-09
1.85649e-08
-4.85842e-09
3.49574e-09
1.84579e-08
-6.1854e-09
3.53629e-09
1.83087e-08
-7.46679e-09
3.58371e-09
1.81172e-08
-8.69485e-09
3.63173e-09
1.78837e-08
3.68802e-09
1.76105e-08
-9.86435e-09
8.63032e-09
2.21977e-09
1.77304e-08
-9.8006e-09
7.40573e-09
2.18678e-09
1.79992e-08
6.13251e-09
2.1592e-09
1.82292e-08
4.81642e-09
2.13163e-09
1.84178e-08
3.46568e-09
2.1077e-09
1.85649e-08
2.08975e-09
2.08975e-09
1.86703e-08
6.98353e-10
2.07875e-09
1.87339e-08
-6.98353e-10
2.07504e-09
1.87553e-08
-2.08975e-09
2.07875e-09
1.87339e-08
-3.46568e-09
2.08975e-09
1.86703e-08
-4.81642e-09
2.1077e-09
1.85649e-08
-6.13251e-09
2.13163e-09
1.84178e-08
-7.40573e-09
2.1592e-09
1.82292e-08
-8.63032e-09
2.18678e-09
1.79992e-08
2.21977e-09
1.77304e-08
-9.8006e-09
8.59251e-09
7.41143e-10
1.78028e-08
-9.76269e-09
7.37e-09
7.3026e-10
1.80689e-08
6.10118e-09
7.21255e-10
1.82968e-08
4.79117e-09
7.12207e-10
1.84837e-08
3.44739e-09
7.04309e-10
1.86295e-08
2.07875e-09
6.98353e-10
1.87339e-08
6.94685e-10
6.94685e-10
1.8797e-08
-6.94685e-10
6.93449e-10
1.88182e-08
-2.07875e-09
6.94685e-10
1.8797e-08
-3.44739e-09
6.98353e-10
1.87339e-08
-4.79117e-09
7.04309e-10
1.86295e-08
-6.10118e-09
7.12207e-10
1.84837e-08
-7.37e-09
7.21255e-10
1.82968e-08
-8.59252e-09
7.3026e-10
1.80689e-08
7.41143e-10
1.78028e-08
-9.76269e-09
8.58006e-09
-7.41143e-10
1.78271e-08
-9.75014e-09
7.35824e-09
-7.3026e-10
1.80923e-08
6.09082e-09
-7.21255e-10
1.83195e-08
4.78276e-09
-7.12206e-10
1.85059e-08
3.44127e-09
-7.04309e-10
1.86512e-08
2.07504e-09
-6.98353e-10
1.87553e-08
6.93449e-10
-6.94685e-10
1.88182e-08
-6.93449e-10
-6.93449e-10
1.88393e-08
-2.07504e-09
-6.94685e-10
1.88182e-08
-3.44127e-09
-6.98353e-10
1.87553e-08
-4.78276e-09
-7.04309e-10
1.86512e-08
-6.09082e-09
-7.12206e-10
1.85059e-08
-7.35824e-09
-7.21255e-10
1.83195e-08
-8.58006e-09
-7.3026e-10
1.80923e-08
-7.41143e-10
1.78271e-08
-9.75014e-09
8.59251e-09
-2.21977e-09
1.78028e-08
-9.76269e-09
7.37e-09
-2.18678e-09
1.80689e-08
6.10118e-09
-2.1592e-09
1.82968e-08
4.79117e-09
-2.13163e-09
1.84837e-08
3.44739e-09
-2.1077e-09
1.86295e-08
2.07875e-09
-2.08975e-09
1.87339e-08
6.94685e-10
-2.07875e-09
1.8797e-08
-6.94685e-10
-2.07504e-09
1.88182e-08
-2.07875e-09
-2.07875e-09
1.8797e-08
-3.44739e-09
-2.08975e-09
1.87339e-08
-4.79117e-09
-2.1077e-09
1.86295e-08
-6.10118e-09
-2.13163e-09
1.84837e-08
-7.37e-09
-2.1592e-09
1.82968e-08
-8.59252e-09
-2.18678e-09
1.80689e-08
-2.21977e-09
1.78028e-08
-9.76269e-09
8.63032e-09
-3.68802e-09
1.77304e-08
-9.8006e-09
7.40573e-09
-3.63173e-09
1.79992e-08
6.13251e-09
-3.58371e-09
1.82292e-08
4.81642e-09
-3.53629e-09
1.84178e-08
3.46568e-09
-3.49574e-09
1.85649e-08
2.08975e-09
-3.46568e-09
1.86703e-08
6.98353e-10
-3.44739e-09
1.87339e-08
-6.98353e-10
-3.44127e-09
1.87553e-08
-2.08975e-09
-3.44739e-09
1.87339e-08
-3.46568e-09
-3.46568e-09
1.86703e-08
-4.81642e-09
-3.49574e-09
1.85649e-08
-6.13251e-09
-3.53629e-09
1.84178e-08
-7.40573e-09
-3.58371e-09
1.82292e-08
-8.63032e-09
-3.63173e-09
1.79992e-08
-3.68802e-09
1.77304e-08
-9.8006e-09
8.69485e-09
-5.14055e-09
1.76105e-08
-9.86435e-09
7.46679e-09
-5.05796e-09
1.78837e-08
6.1854e-09
-4.98553e-09
1.81172e-08
4.85842e-09
-4.91618e-09
1.83087e-08
3.49574e-09
-4.85842e-09
1.84579e-08
2.1077e-09
-4.81642e-09
1.85649e-08
7.04309e-10
-4.79117e-09
1.86295e-08
-7.04309e-10
-4.78276e-09
1.86512e-08
-2.1077e-09
-4.79117e-09
1.86295e-08
-3.49574e-09
-4.81642e-09
1.85649e-08
-4.85842e-09
-4.85842e-09
1.84579e-08
-6.1854e-09
-4.91618e-09
1.83087e-08
-7.46679e-09
-4.98553e-09
1.81172e-08
-8.69485e-09
-5.05796e-09
1.78837e-08
-5.14055e-09
1.76105e-08
-9.86435e-09
8.78899e-09
-6.57411e-09
1.74431e-08
-9.95464e-09
7.55523e-09
-6.45743e-09
1.77226e-08
6.26003e-09
-6.35354e-09
1.79609e-08
4.91618e-09
-6.26003e-09
1.81563e-08
3.53629e-09
-6.1854e-09
1.83087e-08
2.13163e-09
-6.13251e-09
1.84178e-08
7.12206e-10
-6.10118e-09
1.84837e-08
-7.12207e-10
-6.09082e-09
1.85059e-08
-2.13163e-09
-6.10118e-09
1.84837e-08
-3.53629e-09
-6.13251e-09
1.84178e-08
-4.91618e-09
-6.1854e-09
1.83087e-08
-6.26003e-09
-6.26003e-09
1.81563e-08
-7.55523e-09
-6.35354e-09
1.79609e-08
-8.78899e-09
-6.45743e-09
1.77226e-08
-6.57411e-09
1.74431e-08
-9.95464e-09
8.91972e-09
-7.98536e-09
1.72284e-08
-1.00785e-08
7.67234e-09
-7.81637e-09
1.75159e-08
6.35354e-09
-7.67234e-09
1.77604e-08
4.98553e-09
-7.55523e-09
1.79609e-08
3.58371e-09
-7.46679e-09
1.81172e-08
2.1592e-09
-7.40573e-09
1.82292e-08
7.21255e-10
-7.37e-09
1.82968e-08
-7.21255e-10
-7.35824e-09
1.83195e-08
-2.1592e-09
-7.37e-09
1.82968e-08
-3.58371e-09
-7.40573e-09
1.82292e-08
-4.98553e-09
-7.46679e-09
1.81172e-08
-6.35354e-09
-7.55523e-09
1.79609e-08
-7.67234e-09
-7.67234e-09
1.77604e-08
-8.91972e-09
-7.81637e-09
1.75159e-08
-7.98536e-09
1.72284e-08
-1.00785e-08
9.10307e-09
-9.35153e-09
1.69666e-08
-1.02713e-08
7.81637e-09
-9.10307e-09
1.72638e-08
6.45743e-09
-8.91972e-09
1.75159e-08
5.05796e-09
-8.78899e-09
1.77226e-08
3.63173e-09
-8.69485e-09
1.78837e-08
2.18678e-09
-8.63032e-09
1.79992e-08
7.3026e-10
-8.59251e-09
1.80689e-08
-7.3026e-10
-8.58006e-09
1.80923e-08
-2.18678e-09
-8.59251e-09
1.80689e-08
-3.63173e-09
-8.63032e-09
1.79992e-08
-5.05796e-09
-8.69485e-09
1.78837e-08
-6.45744e-09
-8.78899e-09
1.77226e-08
-7.81637e-09
-8.91972e-09
1.75159e-08
-9.10307e-09
-9.10307e-09
1.72638e-08
-9.35153e-09
1.69666e-08
-1.02713e-08
9.35153e-09
1.66568e-08
-1.05971e-08
-1.05971e-08
7.98536e-09
1.69666e-08
-1.02713e-08
6.57411e-09
1.72284e-08
-1.00785e-08
5.14055e-09
1.74431e-08
-9.95464e-09
3.68802e-09
1.76105e-08
-9.86435e-09
2.21977e-09
1.77304e-08
-9.8006e-09
7.41143e-10
1.78028e-08
-9.76269e-09
-7.41143e-10
1.78271e-08
-9.75014e-09
-2.21977e-09
1.78028e-08
-9.76269e-09
-3.68802e-09
1.77304e-08
-9.8006e-09
-5.14055e-09
1.76105e-08
-9.86435e-09
-6.57411e-09
1.74431e-08
-9.95464e-09
-7.98536e-09
1.72284e-08
-1.00785e-08
-9.35153e-09
1.69666e-08
-1.02713e-08
1.66568e-08
-1.05971e-08
-1.05971e-08
5.8839e-09
5.8839e-09
1.83206e-08
-6.71578e-09
-6.71578e-09
5.03822e-09
5.86062e-09
1.86541e-08
-6.70242e-09
4.16819e-09
5.84048e-09
1.89362e-08
-6.6782e-09
3.26776e-09
5.81411e-09
1.91667e-08
-6.63729e-09
2.34629e-09
5.79019e-09
1.93459e-08
-6.60412e-09
1.41216e-09
5.77314e-09
1.94738e-08
-6.58235e-09
4.71378e-10
5.76328e-09
1.95504e-08
-6.57009e-09
-4.71378e-10
5.76008e-09
1.95759e-08
-6.56611e-09
-1.41216e-09
5.76328e-09
1.95504e-08
-6.57009e-09
-2.34629e-09
5.77314e-09
1.94738e-08
-6.58235e-09
-3.26776e-09
5.79019e-09
1.93459e-08
-6.60412e-09
-4.16819e-09
5.81411e-09
1.91667e-08
-6.63729e-09
-5.03822e-09
5.84048e-09
1.89362e-08
-6.6782e-09
-5.8839e-09
5.86062e-09
1.86541e-08
-6.70242e-09
5.8839e-09
1.83206e-08
-6.71578e-09
-6.71578e-09
5.86062e-09
5.03822e-09
1.86541e-08
-6.70242e-09
5.00455e-09
5.00455e-09
1.8976e-08
4.13025e-09
4.98254e-09
1.92481e-08
3.23433e-09
4.96192e-09
1.94707e-08
2.32098e-09
4.94357e-09
1.96437e-08
1.3964e-09
4.92972e-09
1.97672e-08
4.66025e-10
4.92137e-09
1.98412e-08
-4.66026e-10
4.9186e-09
1.98658e-08
-1.3964e-09
4.92137e-09
1.98412e-08
-2.32098e-09
4.92972e-09
1.97672e-08
-3.23433e-09
4.94357e-09
1.96437e-08
-4.13025e-09
4.96192e-09
1.94707e-08
-5.00455e-09
4.98254e-09
1.92481e-08
-5.86062e-09
5.00455e-09
1.8976e-08
5.03822e-09
1.86541e-08
-6.70242e-09
5.84048e-09
4.16819e-09
1.89362e-08
-6.6782e-09
4.98254e-09
4.13025e-09
1.92481e-08
4.1069e-09
4.1069e-09
1.95117e-08
3.21339e-09
4.08907e-09
1.97273e-08
2.30505e-09
4.07424e-09
1.98949e-08
1.38659e-09
4.06288e-09
2.00145e-08
4.62716e-10
4.05584e-09
2.00862e-08
-4.62716e-10
4.05349e-09
2.01101e-08
-1.38659e-09
4.05584e-09
2.00862e-08
-2.30505e-09
4.06288e-09
2.00145e-08
-3.21339e-09
4.07424e-09
1.98949e-08
-4.1069e-09
4.08907e-09
1.97273e-08
-4.98254e-09
4.1069e-09
1.95117e-08
-5.84048e-09
4.13025e-09
1.92481e-08
4.16819e-09
1.89362e-08
-6.6782e-09
5.81411e-09
3.26776e-09
1.91667e-08
-6.63729e-09
4.96192e-09
3.23433e-09
1.94707e-08
4.08907e-09
3.21339e-09
1.97273e-08
3.19864e-09
3.19864e-09
1.99372e-08
2.2942e-09
3.18694e-09
2.01004e-08
1.38001e-09
3.17796e-09
2.02169e-08
4.60519e-10
3.17233e-09
2.02868e-08
-4.60519e-10
3.17042e-09
2.031e-08
-1.38001e-09
3.17233e-09
2.02868e-08
-2.2942e-09
3.17796e-09
2.02169e-08
-3.19864e-09
3.18694e-09
2.01004e-08
-4.08907e-09
3.19864e-09
1.99372e-08
-4.96192e-09
3.21339e-09
1.97273e-08
-5.81411e-09
3.23433e-09
1.94707e-08
3.26776e-09
1.91667e-08
-6.63729e-09
5.79019e-09
2.34629e-09
1.93459e-08
-6.60412e-09
4.94357e-09
2.32098e-09
1.96437e-08
4.07424e-09
2.30505e-09
1.98949e-08
3.18694e-09
2.2942e-09
2.01004e-08
2.28578e-09
2.28578e-09
2.02602e-08
1.37496e-09
2.27931e-09
2.03744e-08
4.58841e-10
2.27521e-09
2.04427e-08
-4.58841e-10
2.27381e-09
2.04655e-08
-1.37496e-09
2.27521e-09
2.04427e-08
-2.28578e-09
2.27931e-09
2.03744e-08
-3.18694e-09
2.28578e-09
2.02602e-08
-4.07424e-09
2.2942e-09
2.01004e-08
-4.94357e-09
2.30505e-09
1.98949e-08
-5.79019e-09
2.32098e-09
1.96437e-08
2.34629e-09
1.93459e-08
-6.60412e-09
5.77314e-09
1.41216e-09
1.94738e-08
-6.58235e-09
4.92972e-09
1.3964e-09
1.97672e-08
4.06288e-09
1.38659e-09
2.00145e-08
3.17796e-09
1.38001e-09
2.02169e-08
2.27931e-09
1.37496e-09
2.03744e-08
1.37108e-09
1.37108e-09
2.04868e-08
4.57549e-10
1.3686e-09
2.05541e-08
-4.57549e-10
1.36775e-09
2.05765e-08
-1.37108e-09
1.3686e-09
2.05541e-08
-2.27931e-09
1.37108e-09
2.04868e-08
-3.17796e-09
1.37496e-09
2.03744e-08
-4.06288e-09
1.38001e-09
2.02169e-08
-4.92972e-09
1.38659e-09
2.00145e-08
-5.77314e-09
1.3964e-09
1.97672e-08
1.41216e-09
1.94738e-08
-6.58235e-09
5.76328e-09
4.71378e-10
1.95504e-08
-6.57009e-09
4.92137e-09
4.66026e-10
1.98412e-08
4.05584e-09
4.62716e-10
2.00862e-08
3.17233e-09
4.60519e-10
2.02868e-08
2.27521e-09
4.58841e-10
2.04427e-08
1.3686e-09
4.57549e-10
2.05541e-08
4.56721e-10
4.56721e-10
2.06208e-08
-4.56721e-10
4.56436e-10
2.0643e-08
-1.3686e-09
4.56721e-10
2.06208e-08
-2.27521e-09
4.57549e-10
2.05541e-08
-3.17233e-09
4.58841e-10
2.04427e-08
-4.05584e-09
4.60519e-10
2.02868e-08
-4.92137e-09
4.62716e-10
2.00862e-08
-5.76328e-09
4.66026e-10
1.98412e-08
4.71378e-10
1.95504e-08
-6.57009e-09
5.76008e-09
-4.71378e-10
1.95759e-08
-6.56611e-09
4.9186e-09
-4.66026e-10
1.98658e-08
4.05348e-09
-4.62716e-10
2.01101e-08
3.17042e-09
-4.60519e-10
2.031e-08
2.27381e-09
-4.58841e-10
2.04655e-08
1.36775e-09
-4.57549e-10
2.05765e-08
4.56436e-10
-4.56721e-10
2.0643e-08
-4.56436e-10
-4.56436e-10
2.06651e-08
-1.36775e-09
-4.56721e-10
2.0643e-08
-2.27381e-09
-4.57549e-10
2.05765e-08
-3.17042e-09
-4.58841e-10
2.04655e-08
-4.05349e-09
-4.60519e-10
2.031e-08
-4.9186e-09
-4.62716e-10
2.01101e-08
-5.76008e-09
-4.66026e-10
1.98658e-08
-4.71378e-10
1.95759e-08
-6.56611e-09
5.76328e-09
-1.41216e-09
1.95504e-08
-6.57009e-09
4.92137e-09
-1.3964e-09
1.98412e-08
4.05584e-09
-1.38659e-09
2.00862e-08
3.17233e-09
-1.38001e-09
2.02868e-08
2.27521e-09
-1.37496e-09
2.04427e-08
1.3686e-09
-1.37108e-09
2.05541e-08
4.56721e-10
-1.3686e-09
2.06208e-08
-4.56721e-10
-1.36775e-09
2.0643e-08
-1.3686e-09
-1.3686e-09
2.06208e-08
-2.27521e-09
-1.37108e-09
2.05541e-08
-3.17233e-09
-1.37496e-09
2.04427e-08
-4.05584e-09
-1.38001e-09
2.02868e-08
-4.92137e-09
-1.38659e-09
2.00862e-08
-5.76328e-09
-1.3964e-09
1.98412e-08
-1.41216e-09
1.95504e-08
-6.57009e-09
5.77314e-09
-2.34629e-09
1.94738e-08
-6.58235e-09
4.92972e-09
-2.32098e-09
1.97672e-08
4.06288e-09
-2.30505e-09
2.00145e-08
3.17796e-09
-2.2942e-09
2.02169e-08
2.27931e-09
-2.28578e-09
2.03744e-08
1.37108e-09
-2.27931e-09
2.04868e-08
4.57549e-10
-2.27521e-09
2.05541e-08
-4.57549e-10
-2.27381e-09
2.05765e-08
-1.37108e-09
-2.27521e-09
2.05541e-08
-2.27931e-09
-2.27931e-09
2.04868e-08
-3.17796e-09
-2.28578e-09
2.03744e-08
-4.06288e-09
-2.2942e-09
2.02169e-08
-4.92972e-09
-2.30505e-09
2.00145e-08
-5.77314e-09
-2.32098e-09
1.97672e-08
-2.34629e-09
1.94738e-08
-6.58235e-09
5.79019e-09
-3.26776e-09
1.93459e-08
-6.60412e-09
4.94357e-09
-3.23433e-09
1.96437e-08
4.07424e-09
-3.21339e-09
1.98949e-08
3.18694e-09
-3.19864e-09
2.01004e-08
2.28578e-09
-3.18694e-09
2.02602e-08
1.37496e-09
-3.17796e-09
2.03744e-08
4.58841e-10
-3.17233e-09
2.04427e-08
-4.58841e-10
-3.17042e-09
2.04655e-08
-1.37496e-09
-3.17233e-09
2.04427e-08
-2.28578e-09
-3.17796e-09
2.03744e-08
-3.18694e-09
-3.18694e-09
2.02602e-08
-4.07424e-09
-3.19864e-09
2.01004e-08
-4.94357e-09
-3.21339e-09
1.98949e-08
-5.79019e-09
-3.23433e-09
1.96437e-08
-3.26776e-09
1.93459e-08
-6.60412e-09
5.81411e-09
-4.16819e-09
1.91667e-08
-6.63729e-09
4.96192e-09
-4.13025e-09
1.94707e-08
4.08907e-09
-4.1069e-09
1.97273e-08
3.19864e-09
-4.08907e-09
1.99372e-08
2.2942e-09
-4.07424e-09
2.01004e-08
1.38001e-09
-4.06288e-09
2.02169e-08
4.60519e-10
-4.05584e-09
2.02868e-08
-4.60519e-10
-4.05348e-09
2.031e-08
-1.38001e-09
-4.05584e-09
2.02868e-08
-2.2942e-09
-4.06288e-09
2.02169e-08
-3.19864e-09
-4.07424e-09
2.01004e-08
-4.08907e-09
-4.08907e-09
1.99372e-08
-4.96192e-09
-4.1069e-09
1.97273e-08
-5.81411e-09
-4.13025e-09
1.94707e-08
-4.16819e-09
1.91667e-08
-6.63729e-09
5.84048e-09
-5.03822e-09
1.89362e-08
-6.6782e-09
4.98254e-09
-5.00455e-09
1.92481e-08
4.1069e-09
-4.98254e-09
1.95117e-08
3.21339e-09
-4.96192e-09
1.97273e-08
2.30505e-09
-4.94357e-09
1.98949e-08
1.38659e-09
-4.92972e-09
2.00145e-08
4.62716e-10
-4.92137e-09
2.00862e-08
-4.62716e-10
-4.9186e-09
2.01101e-08
-1.38659e-09
-4.92137e-09
2.00862e-08
-2.30505e-09
-4.92972e-09
2.00145e-08
-3.21339e-09
-4.94357e-09
1.98949e-08
-4.1069e-09
-4.96192e-09
1.97273e-08
-4.98254e-09
-4.98254e-09
1.95117e-08
-5.84048e-09
-5.00455e-09
1.92481e-08
-5.03822e-09
1.89362e-08
-6.6782e-09
5.86062e-09
-5.8839e-09
1.86541e-08
-6.70242e-09
5.00455e-09
-5.86062e-09
1.8976e-08
4.13025e-09
-5.84048e-09
1.92481e-08
3.23433e-09
-5.81411e-09
1.94707e-08
2.32098e-09
-5.79019e-09
1.96437e-08
1.3964e-09
-5.77314e-09
1.97672e-08
4.66026e-10
-5.76328e-09
1.98412e-08
-4.66026e-10
-5.76008e-09
1.98658e-08
-1.3964e-09
-5.76328e-09
1.98412e-08
-2.32098e-09
-5.77314e-09
1.97672e-08
-3.23433e-09
-5.79019e-09
1.96437e-08
-4.13025e-09
-5.81411e-09
1.94707e-08
-5.00455e-09
-5.84048e-09
1.92481e-08
-5.86062e-09
-5.86062e-09
1.8976e-08
-5.8839e-09
1.86541e-08
-6.70242e-09
5.8839e-09
1.83206e-08
-6.71578e-09
-6.71578e-09
5.03822e-09
1.86541e-08
-6.70242e-09
4.16819e-09
1.89362e-08
-6.6782e-09
3.26776e-09
1.91667e-08
-6.63729e-09
2.34629e-09
1.93459e-08
-6.60412e-09
1.41216e-09
1.94738e-08
-6.58235e-09
4.71378e-10
1.95504e-08
-6.57009e-09
-4.71378e-10
1.95759e-08
-6.56611e-09
-1.41216e-09
1.95504e-08
-6.57009e-09
-2.34629e-09
1.94738e-08
-6.58235e-09
-3.26776e-09
1.93459e-08
-6.60412e-09
-4.16819e-09
1.91667e-08
-6.63729e-09
-5.03822e-09
1.89362e-08
-6.6782e-09
-5.8839e-09
1.86541e-08
-6.70242e-09
1.83206e-08
-6.71578e-09
-6.71578e-09
3.70582e-09
3.70582e-09
1.93037e-08
-4.19736e-09
-4.19736e-09
3.2082e-09
3.68715e-09
1.96668e-08
-4.20224e-09
2.675e-09
3.66595e-09
1.99722e-08
-4.16875e-09
2.11046e-09
3.63977e-09
2.0221e-08
-4.12954e-09
1.52284e-09
3.61438e-09
2.0414e-08
-4.09488e-09
9.197e-10
3.59407e-09
2.05516e-08
-4.0688e-09
3.0756e-10
3.58118e-09
2.06341e-08
-4.05279e-09
-3.0756e-10
3.57679e-09
2.06616e-08
-4.04742e-09
-9.197e-10
3.58118e-09
2.06341e-08
-4.05279e-09
-1.52284e-09
3.59407e-09
2.05516e-08
-4.0688e-09
-2.11046e-09
3.61438e-09
2.0414e-08
-4.09488e-09
-2.675e-09
3.63977e-09
2.0221e-08
-4.12954e-09
-3.2082e-09
3.66595e-09
1.99722e-08
-4.16875e-09
-3.70582e-09
3.68715e-09
1.96668e-08
-4.20224e-09
3.70582e-09
1.93037e-08
-4.19736e-09
-4.19736e-09
3.68715e-09
3.2082e-09
1.96668e-08
-4.20224e-09
3.16774e-09
3.16774e-09
2.00148e-08
2.63066e-09
3.14314e-09
2.0308e-08
2.07173e-09
3.12222e-09
2.05472e-08
1.49373e-09
3.10331e-09
2.07328e-08
9.01826e-10
3.08799e-09
2.08652e-08
3.01548e-10
3.07808e-09
2.09446e-08
-3.01548e-10
3.07467e-09
2.0971e-08
-9.01827e-10
3.07808e-09
2.09446e-08
-1.49373e-09
3.08799e-09
2.08652e-08
-2.07173e-09
3.10331e-09
2.07328e-08
-2.63066e-09
3.12222e-09
2.05472e-08
-3.16774e-09
3.14314e-09
2.0308e-08
-3.68715e-09
3.16774e-09
2.00148e-08
3.2082e-09
1.96668e-08
-4.20224e-09
3.66595e-09
2.675e-09
1.99722e-08
-4.16875e-09
3.14314e-09
2.63066e-09
2.0308e-08
2.60341e-09
2.60341e-09
2.05912e-08
2.04634e-09
2.5843e-09
2.08222e-08
1.47374e-09
2.56909e-09
2.10017e-08
8.89218e-10
2.55729e-09
2.11298e-08
2.97256e-10
2.54972e-09
2.12066e-08
-2.97256e-10
2.54711e-09
2.12321e-08
-8.89219e-10
2.54972e-09
2.12066e-08
-1.47374e-09
2.55729e-09
2.11298e-08
-2.04634e-09
2.56909e-09
2.10017e-08
-2.60341e-09
2.5843e-09
2.08222e-08
-3.14314e-09
2.60341e-09
2.05912e-08
-3.66595e-09
2.63066e-09
2.0308e-08
2.675e-09
1.99722e-08
-4.16875e-09
3.63977e-09
2.11046e-09
2.0221e-08
-4.12954e-09
3.12222e-09
2.07173e-09
2.05472e-08
2.5843e-09
2.04634e-09
2.08222e-08
2.02945e-09
2.02945e-09
2.10469e-08
1.46049e-09
2.01708e-09
2.12214e-08
8.80811e-10
2.00797e-09
2.13459e-08
2.94381e-10
2.00225e-09
2.14207e-08
-2.94381e-10
2.00029e-09
2.14456e-08
-8.80811e-10
2.00225e-09
2.14207e-08
-1.46049e-09
2.00797e-09
2.13459e-08
-2.02945e-09
2.01708e-09
2.12214e-08
-2.5843e-09
2.02945e-09
2.10469e-08
-3.12222e-09
2.04634e-09
2.08222e-08
-3.63977e-09
2.07173e-09
2.05472e-08
2.11046e-09
2.0221e-08
-4.12954e-09
3.61438e-09
1.52284e-09
2.0414e-08
-4.09488e-09
3.10331e-09
1.49373e-09
2.07328e-08
2.56909e-09
1.47374e-09
2.10017e-08
2.01708e-09
1.46049e-09
2.12214e-08
1.45115e-09
1.45115e-09
2.13921e-08
8.74975e-10
1.44453e-09
2.1514e-08
2.92395e-10
1.44045e-09
2.15871e-08
-2.92395e-10
1.43907e-09
2.16115e-08
-8.74975e-10
1.44045e-09
2.15871e-08
-1.45115e-09
1.44453e-09
2.1514e-08
-2.01708e-09
1.45115e-09
2.13921e-08
-2.56909e-09
1.46049e-09
2.12214e-08
-3.10331e-09
1.47374e-09
2.10017e-08
-3.61438e-09
1.49373e-09
2.07328e-08
1.52284e-09
2.0414e-08
-4.09488e-09
3.59407e-09
9.197e-10
2.05516e-08
-4.0688e-09
3.08799e-09
9.01827e-10
2.08652e-08
2.55729e-09
8.89219e-10
2.11298e-08
2.00797e-09
8.80811e-10
2.13459e-08
1.44453e-09
8.74976e-10
2.1514e-08
8.70915e-10
8.70915e-10
2.1634e-08
2.91025e-10
8.68453e-10
2.1706e-08
-2.91025e-10
8.67621e-10
2.173e-08
-8.70915e-10
8.68453e-10
2.1706e-08
-1.44453e-09
8.70915e-10
2.1634e-08
-2.00797e-09
8.74976e-10
2.1514e-08
-2.55729e-09
8.80811e-10
2.13459e-08
-3.08799e-09
8.89219e-10
2.11298e-08
-3.59407e-09
9.01827e-10
2.08652e-08
9.197e-10
2.05517e-08
-4.0688e-09
3.58118e-09
3.0756e-10
2.06341e-08
-4.05279e-09
3.07808e-09
3.01548e-10
2.09446e-08
2.54972e-09
2.97256e-10
2.12066e-08
2.00225e-09
2.94381e-10
2.14207e-08
1.44045e-09
2.92395e-10
2.15871e-08
8.68453e-10
2.91025e-10
2.1706e-08
2.90199e-10
2.90199e-10
2.17773e-08
-2.90199e-10
2.89921e-10
2.18011e-08
-8.68453e-10
2.90199e-10
2.17773e-08
-1.44045e-09
2.91025e-10
2.1706e-08
-2.00225e-09
2.92395e-10
2.15871e-08
-2.54972e-09
2.94381e-10
2.14207e-08
-3.07808e-09
2.97256e-10
2.12066e-08
-3.58118e-09
3.01548e-10
2.09446e-08
3.0756e-10
2.06341e-08
-4.05279e-09
3.57679e-09
-3.0756e-10
2.06616e-08
-4.04742e-09
3.07467e-09
-3.01548e-10
2.0971e-08
2.54711e-09
-2.97256e-10
2.12321e-08
2.00029e-09
-2.94381e-10
2.14456e-08
1.43907e-09
-2.92395e-10
2.16115e-08
8.67621e-10
-2.91025e-10
2.173e-08
2.89921e-10
-2.90199e-10
2.18011e-08
-2.89921e-10
-2.89921e-10
2.18248e-08
-8.67621e-10
-2.90199e-10
2.18011e-08
-1.43907e-09
-2.91025e-10
2.173e-08
-2.00029e-09
-2.92395e-10
2.16115e-08
-2.54711e-09
-2.94381e-10
2.14456e-08
-3.07467e-09
-2.97256e-10
2.12321e-08
-3.57679e-09
-3.01548e-10
2.0971e-08
-3.0756e-10
2.06616e-08
-4.04742e-09
3.58118e-09
-9.197e-10
2.06341e-08
-4.05279e-09
3.07808e-09
-9.01827e-10
2.09446e-08
2.54972e-09
-8.89218e-10
2.12066e-08
2.00225e-09
-8.80811e-10
2.14207e-08
1.44045e-09
-8.74975e-10
2.15871e-08
8.68453e-10
-8.70915e-10
2.1706e-08
2.90199e-10
-8.68453e-10
2.17773e-08
-2.90199e-10
-8.67621e-10
2.18011e-08
-8.68453e-10
-8.68453e-10
2.17773e-08
-1.44045e-09
-8.70915e-10
2.1706e-08
-2.00225e-09
-8.74975e-10
2.15871e-08
-2.54972e-09
-8.80811e-10
2.14207e-08
-3.07808e-09
-8.89218e-10
2.12066e-08
-3.58118e-09
-9.01827e-10
2.09446e-08
-9.197e-10
2.06341e-08
-4.05279e-09
3.59407e-09
-1.52284e-09
2.05516e-08
-4.0688e-09
3.08799e-09
-1.49373e-09
2.08652e-08
2.55729e-09
-1.47374e-09
2.11298e-08
2.00797e-09
-1.46049e-09
2.13459e-08
1.44453e-09
-1.45115e-09
2.1514e-08
8.70915e-10
-1.44453e-09
2.1634e-08
2.91025e-10
-1.44045e-09
2.1706e-08
-2.91025e-10
-1.43907e-09
2.173e-08
-8.70915e-10
-1.44045e-09
2.1706e-08
-1.44453e-09
-1.44453e-09
2.1634e-08
-2.00797e-09
-1.45115e-09
2.1514e-08
-2.55729e-09
-1.46049e-09
2.13459e-08
-3.08799e-09
-1.47374e-09
2.11298e-08
-3.59407e-09
-1.49373e-09
2.08652e-08
-1.52284e-09
2.05517e-08
-4.0688e-09
3.61438e-09
-2.11046e-09
2.0414e-08
-4.09488e-09
3.10331e-09
-2.07173e-09
2.07328e-08
2.56909e-09
-2.04634e-09
2.10017e-08
2.01708e-09
-2.02945e-09
2.12214e-08
1.45115e-09
-2.01708e-09
2.13921e-08
8.74975e-10
-2.00797e-09
2.1514e-08
2.92395e-10
-2.00225e-09
2.15871e-08
-2.92395e-10
-2.00029e-09
2.16115e-08
-8.74975e-10
-2.00225e-09
2.15871e-08
-1.45115e-09
-2.00797e-09
2.1514e-08
-2.01708e-09
-2.01708e-09
2.13921e-08
-2.56909e-09
-2.02945e-09
2.12214e-08
-3.10331e-09
-2.04634e-09
2.10017e-08
-3.61438e-09
-2.07173e-09
2.07328e-08
-2.11046e-09
2.0414e-08
-4.09488e-09
3.63977e-09
-2.675e-09
2.0221e-08
-4.12954e-09
3.12222e-09
-2.63066e-09
2.05472e-08
2.5843e-09
-2.60341e-09
2.08222e-08
2.02945e-09
-2.5843e-09
2.10469e-08
1.46049e-09
-2.56909e-09
2.12214e-08
8.80811e-10
-2.55729e-09
2.13459e-08
2.94381e-10
-2.54972e-09
2.14207e-08
-2.94381e-10
-2.54711e-09
2.14456e-08
-8.80811e-10
-2.54972e-09
2.14207e-08
-1.46049e-09
-2.55729e-09
2.13459e-08
-2.02945e-09
-2.56909e-09
2.12214e-08
-2.5843e-09
-2.5843e-09
2.10469e-08
-3.12222e-09
-2.60341e-09
2.08222e-08
-3.63977e-09
-2.63066e-09
2.05472e-08
-2.675e-09
2.0221e-08
-4.12954e-09
3.66595e-09
-3.2082e-09
1.99722e-08
-4.16875e-09
3.14314e-09
-3.16774e-09
2.0308e-08
2.60341e-09
-3.14314e-09
2.05912e-08
2.04634e-09
-3.12222e-09
2.08222e-08
1.47374e-09
-3.10331e-09
2.10017e-08
8.89218e-10
-3.08799e-09
2.11298e-08
2.97256e-10
-3.07808e-09
2.12066e-08
-2.97256e-10
-3.07467e-09
2.12321e-08
-8.89219e-10
-3.07808e-09
2.12066e-08
-1.47374e-09
-3.08799e-09
2.11298e-08
-2.04634e-09
-3.10331e-09
2.10017e-08
-2.60341e-09
-3.12222e-09
2.08222e-08
-3.14314e-09
-3.14314e-09
2.05912e-08
-3.66595e-09
-3.16774e-09
2.0308e-08
-3.2082e-09
1.99722e-08
-4.16875e-09
3.68715e-09
-3.70582e-09
1.96668e-08
-4.20224e-09
3.16774e-09
-3.68715e-09
2.00148e-08
2.63066e-09
-3.66595e-09
2.0308e-08
2.07173e-09
-3.63977e-09
2.05472e-08
1.49373e-09
-3.61438e-09
2.07328e-08
9.01827e-10
-3.59407e-09
2.08652e-08
3.01548e-10
-3.58118e-09
2.09446e-08
-3.01548e-10
-3.57679e-09
2.0971e-08
-9.01827e-10
-3.58118e-09
2.09446e-08
-1.49373e-09
-3.59407e-09
2.08652e-08
-2.07173e-09
-3.61438e-09
2.07328e-08
-2.63066e-09
-3.63977e-09
2.05472e-08
-3.16774e-09
-3.66595e-09
2.0308e-08
-3.68715e-09
-3.68715e-09
2.00148e-08
-3.70582e-09
1.96668e-08
-4.20224e-09
3.70582e-09
1.93037e-08
-4.19736e-09
-4.19736e-09
3.2082e-09
1.96668e-08
-4.20224e-09
2.675e-09
1.99722e-08
-4.16875e-09
2.11046e-09
2.0221e-08
-4.12953e-09
1.52284e-09
2.0414e-08
-4.09488e-09
9.197e-10
2.05516e-08
-4.0688e-09
3.0756e-10
2.06341e-08
-4.05279e-09
-3.0756e-10
2.06616e-08
-4.04742e-09
-9.197e-10
2.06341e-08
-4.05279e-09
-1.52284e-09
2.05516e-08
-4.0688e-09
-2.11046e-09
2.0414e-08
-4.09488e-09
-2.675e-09
2.0221e-08
-4.12953e-09
-3.2082e-09
1.99722e-08
-4.16875e-09
-3.70582e-09
1.96668e-08
-4.20224e-09
1.93037e-08
-4.19736e-09
-4.19736e-09
2.81461e-09
2.81461e-09
2.00294e-08
-3.17745e-09
-3.17745e-09
2.43163e-09
2.80153e-09
2.04221e-08
-3.17386e-09
2.02478e-09
2.79272e-09
2.07506e-08
-3.16434e-09
1.59696e-09
2.78333e-09
2.10172e-08
-3.15172e-09
1.15247e-09
2.77325e-09
2.12233e-08
-3.13807e-09
6.9615e-10
2.76426e-09
2.137e-08
-3.12626e-09
2.32823e-10
2.75811e-09
2.14577e-08
-3.11837e-09
-2.32823e-10
2.75594e-09
2.14869e-08
-3.11561e-09
-6.9615e-10
2.75811e-09
2.14577e-08
-3.11837e-09
-1.15247e-09
2.76426e-09
2.137e-08
-3.12626e-09
-1.59696e-09
2.77325e-09
2.12233e-08
-3.13807e-09
-2.02478e-09
2.78333e-09
2.10172e-08
-3.15172e-09
-2.43163e-09
2.79272e-09
2.07506e-08
-3.16434e-09
-2.81461e-09
2.80153e-09
2.04221e-08
-3.17386e-09
2.81461e-09
2.00294e-08
-3.17745e-09
-3.17745e-09
2.80153e-09
2.43163e-09
2.04221e-08
-3.17386e-09
2.41047e-09
2.41047e-09
2.07969e-08
2.00154e-09
2.3986e-09
2.11111e-08
1.57597e-09
2.38984e-09
2.13662e-08
1.13626e-09
2.38211e-09
2.15636e-08
6.86031e-10
2.37553e-09
2.17041e-08
2.29393e-10
2.37106e-09
2.17883e-08
-2.29393e-10
2.36947e-09
2.18163e-08
-6.86031e-10
2.37106e-09
2.17883e-08
-1.13626e-09
2.37553e-09
2.17041e-08
-1.57597e-09
2.38211e-09
2.15636e-08
-2.00154e-09
2.38984e-09
2.13662e-08
-2.41047e-09
2.3986e-09
2.11111e-08
-2.80153e-09
2.41047e-09
2.07969e-08
2.43163e-09
2.04221e-08
-3.17386e-09
2.79272e-09
2.02478e-09
2.07506e-08
-3.16434e-09
2.3986e-09
2.00154e-09
2.11111e-08
1.98752e-09
1.98752e-09
2.14133e-08
1.56216e-09
1.97846e-09
2.1659e-08
1.1249e-09
1.97187e-09
2.18492e-08
6.78661e-10
1.96689e-09
2.19846e-08
2.26849e-10
1.96366e-09
2.20658e-08
-2.26849e-10
1.96253e-09
2.20928e-08
-6.78662e-10
1.96366e-09
2.20658e-08
-1.1249e-09
1.96689e-09
2.19846e-08
-1.56216e-09
1.97187e-09
2.18492e-08
-1.98752e-09
1.97846e-09
2.1659e-08
-2.3986e-09
1.98752e-09
2.14133e-08
-2.79272e-09
2.00154e-09
2.11111e-08
2.02478e-09
2.07506e-08
-3.16434e-09
2.78333e-09
1.59696e-09
2.10172e-08
-3.15172e-09
2.38984e-09
1.57597e-09
2.13662e-08
1.97845e-09
1.56216e-09
2.1659e-08
1.55334e-09
1.55334e-09
2.18971e-08
1.1175e-09
1.54755e-09
2.20815e-08
6.73753e-10
1.54364e-09
2.22129e-08
2.25134e-10
1.54127e-09
2.22917e-08
-2.25134e-10
1.54046e-09
2.23179e-08
-6.73753e-10
1.54127e-09
2.22917e-08
-1.1175e-09
1.54364e-09
2.22129e-08
-1.55334e-09
1.54755e-09
2.20815e-08
-1.97846e-09
1.55334e-09
2.18971e-08
-2.38984e-09
1.56216e-09
2.1659e-08
-2.78333e-09
1.57597e-09
2.13662e-08
1.59696e-09
2.10172e-08
-3.15172e-09
2.77325e-09
1.15247e-09
2.12233e-08
-3.13807e-09
2.38211e-09
1.13626e-09
2.15636e-08
1.97187e-09
1.1249e-09
2.18492e-08
1.54755e-09
1.1175e-09
2.20815e-08
1.1128e-09
1.1128e-09
2.22616e-08
6.70658e-10
1.10983e-09
2.23899e-08
2.24052e-10
1.10813e-09
2.24668e-08
-2.24052e-10
1.10757e-09
2.24925e-08
-6.70658e-10
1.10813e-09
2.24668e-08
-1.1128e-09
1.10983e-09
2.23899e-08
-1.54755e-09
1.1128e-09
2.22616e-08
-1.97187e-09
1.1175e-09
2.20815e-08
-2.38211e-09
1.1249e-09
2.18492e-08
-2.77325e-09
1.13626e-09
2.15636e-08
1.15247e-09
2.12233e-08
-3.13807e-09
2.76426e-09
6.9615e-10
2.137e-08
-3.12626e-09
2.37553e-09
6.86031e-10
2.17041e-08
1.96689e-09
6.78662e-10
2.19846e-08
1.54364e-09
6.73753e-10
2.22129e-08