/*--------------------------------*- C++ -*----------------------------------*\
| =========                 |                                                 |
| \\      /  F ield         | OpenFOAM: The Open Source CFD Toolbox           |
|  \\    /   O peration     | Version:  2312                                  |
|   \\  /    A nd           | Website:  www.openfoam.com                      |
|    \\/     M anipulation  |                                                 |
\*---------------------------------------------------------------------------*/
FoamFile
{
    version     2.0;
    format      ascii;
    arch        "LSB;label=32;scalar=64";
    class       volVectorField;
    location    "448";
    object      U;
}
// * * * * * * * * * * * * * * * * * * * * * * * * * * * * * * * * * * * * * //

dimensions      [0 1 -1 0 0 0 0];

internalField   nonuniform List<vector> 
112500
(
(0.00200999 0.00200999 0.107513)
(0.00171057 0.00200041 0.107477)
(0.00141556 0.00199774 0.107447)
(0.00112888 0.0020001 0.107422)
(0.000845175 0.00200302 0.107403)
(0.000562852 0.00200532 0.107389)
(0.000281271 0.00200677 0.107381)
(1.65067e-10 0.00200726 0.107378)
(-0.000281271 0.00200677 0.107381)
(-0.000562851 0.00200532 0.107389)
(-0.000845174 0.00200302 0.107403)
(-0.00112888 0.0020001 0.107422)
(-0.00141556 0.00199774 0.107447)
(-0.00171057 0.00200041 0.107477)
(-0.00200999 0.00200999 0.107513)
(0.00200041 0.00171057 0.107477)
(0.00170829 0.00170829 0.107441)
(0.00142175 0.00170854 0.107411)
(0.00113722 0.001711 0.107386)
(0.000852374 0.00171413 0.107367)
(0.000567903 0.00171694 0.107353)
(0.000283859 0.00171884 0.107344)
(1.37893e-10 0.00171951 0.107342)
(-0.000283859 0.00171884 0.107344)
(-0.000567902 0.00171694 0.107353)
(-0.000852374 0.00171413 0.107367)
(-0.00113722 0.001711 0.107386)
(-0.00142175 0.00170854 0.107411)
(-0.00170829 0.00170829 0.107441)
(-0.00200041 0.00171057 0.107477)
(0.00199774 0.00141556 0.107447)
(0.00170854 0.00142175 0.107411)
(0.00142632 0.00142632 0.107381)
(0.00114327 0.00142903 0.107355)
(0.000858045 0.0014312 0.107336)
(0.00057214 0.00143306 0.107321)
(0.0002861 0.00143434 0.107313)
(1.12763e-10 0.00143479 0.10731)
(-0.000286099 0.00143434 0.107313)
(-0.00057214 0.00143306 0.107321)
(-0.000858045 0.0014312 0.107336)
(-0.00114327 0.00142903 0.107355)
(-0.00142632 0.00142632 0.107381)
(-0.00170854 0.00142175 0.107411)
(-0.00199774 0.00141556 0.107447)
(0.0020001 0.00112888 0.107422)
(0.001711 0.00113722 0.107386)
(0.00142903 0.00114327 0.107355)
(0.00114606 0.00114606 0.10733)
(0.000860719 0.00114758 0.107309)
(0.00057424 0.00114861 0.107295)
(0.000287245 0.00114927 0.107286)
(8.94784e-11 0.0011495 0.107283)
(-0.000287245 0.00114927 0.107286)
(-0.00057424 0.00114861 0.107295)
(-0.000860719 0.00114758 0.107309)
(-0.00114606 0.00114606 0.10733)
(-0.00142903 0.00114327 0.107355)
(-0.001711 0.00113722 0.107386)
(-0.0020001 0.00112888 0.107422)
(0.00200302 0.000845174 0.107403)
(0.00171413 0.000852374 0.107367)
(0.0014312 0.000858045 0.107336)
(0.00114758 0.000860719 0.107309)
(0.00086199 0.00086199 0.107289)
(0.00057523 0.000862692 0.107274)
(0.000287791 0.000863078 0.107265)
(6.77175e-11 0.000863205 0.107262)
(-0.000287791 0.000863078 0.107265)
(-0.00057523 0.000862692 0.107274)
(-0.00086199 0.00086199 0.107289)
(-0.00114758 0.000860719 0.107309)
(-0.0014312 0.000858045 0.107336)
(-0.00171413 0.000852374 0.107367)
(-0.00200302 0.000845175 0.107403)
(0.00200532 0.000562851 0.107389)
(0.00171694 0.000567902 0.107353)
(0.00143306 0.00057214 0.107321)
(0.00114861 0.00057424 0.107295)
(0.000862692 0.00057523 0.107274)
(0.000575728 0.000575728 0.107259)
(0.000288058 0.000575973 0.10725)
(4.79631e-11 0.000576048 0.107247)
(-0.000288058 0.000575973 0.10725)
(-0.000575728 0.000575728 0.107259)
(-0.000862692 0.00057523 0.107274)
(-0.00114861 0.00057424 0.107295)
(-0.00143306 0.00057214 0.107321)
(-0.00171694 0.000567903 0.107353)
(-0.00200532 0.000562852 0.107389)
(0.00200677 0.000281271 0.107381)
(0.00171884 0.000283859 0.107344)
(0.00143434 0.000286099 0.107313)
(0.00114927 0.000287245 0.107286)
(0.000863078 0.000287791 0.107265)
(0.000575973 0.000288058 0.10725)
(0.000288182 0.000288182 0.107241)
(2.98528e-11 0.000288218 0.107238)
(-0.000288182 0.000288182 0.107241)
(-0.000575973 0.000288058 0.10725)
(-0.000863078 0.000287791 0.107265)
(-0.00114927 0.000287245 0.107286)
(-0.00143434 0.0002861 0.107313)
(-0.00171884 0.000283859 0.107344)
(-0.00200677 0.000281271 0.107381)
(0.00200726 -9.99531e-11 0.107378)
(0.00171951 -8.42237e-11 0.107342)
(0.00143479 -6.87784e-11 0.10731)
(0.0011495 -5.32643e-11 0.107283)
(0.000863205 -3.75406e-11 0.107262)
(0.000576048 -2.19492e-11 0.107247)
(0.000288218 -6.41415e-12 0.107238)
(1.3541e-11 9.04231e-12 0.107235)
(-0.000288218 2.44522e-11 0.107238)
(-0.000576048 3.98111e-11 0.107247)
(-0.000863205 5.50988e-11 0.107262)
(-0.0011495 7.03438e-11 0.107283)
(-0.00143479 8.55303e-11 0.10731)
(-0.00171951 1.00614e-10 0.107342)
(-0.00200726 1.15745e-10 0.107378)
(0.00200677 -0.000281271 0.107381)
(0.00171884 -0.000283859 0.107344)
(0.00143434 -0.0002861 0.107313)
(0.00114927 -0.000287245 0.107286)
(0.000863078 -0.000287791 0.107265)
(0.000575973 -0.000288058 0.10725)
(0.000288182 -0.000288182 0.107241)
(-1.04026e-12 -0.000288218 0.107238)
(-0.000288182 -0.000288182 0.107241)
(-0.000575973 -0.000288058 0.10725)
(-0.000863078 -0.000287791 0.107265)
(-0.00114927 -0.000287245 0.107286)
(-0.00143434 -0.000286099 0.107313)
(-0.00171884 -0.000283859 0.107344)
(-0.00200677 -0.000281271 0.107381)
(0.00200532 -0.000562851 0.107389)
(0.00171694 -0.000567903 0.107353)
(0.00143306 -0.00057214 0.107321)
(0.00114861 -0.00057424 0.107295)
(0.000862692 -0.00057523 0.107274)
(0.000575728 -0.000575728 0.107259)
(0.000288058 -0.000575973 0.10725)
(-1.37969e-11 -0.000576048 0.107247)
(-0.000288058 -0.000575973 0.10725)
(-0.000575728 -0.000575728 0.107259)
(-0.000862692 -0.00057523 0.107274)
(-0.00114861 -0.00057424 0.107295)
(-0.00143306 -0.00057214 0.107321)
(-0.00171694 -0.000567902 0.107353)
(-0.00200532 -0.000562851 0.107389)
(0.00200302 -0.000845174 0.107403)
(0.00171413 -0.000852374 0.107367)
(0.0014312 -0.000858045 0.107336)
(0.00114758 -0.000860719 0.107309)
(0.00086199 -0.00086199 0.107289)
(0.00057523 -0.000862692 0.107274)
(0.000287791 -0.000863078 0.107265)
(-2.46911e-11 -0.000863205 0.107262)
(-0.000287791 -0.000863078 0.107265)
(-0.00057523 -0.000862692 0.107274)
(-0.00086199 -0.00086199 0.107289)
(-0.00114758 -0.000860719 0.107309)
(-0.0014312 -0.000858045 0.107336)
(-0.00171413 -0.000852374 0.107367)
(-0.00200302 -0.000845174 0.107403)
(0.0020001 -0.00112888 0.107422)
(0.001711 -0.00113722 0.107386)
(0.00142903 -0.00114327 0.107355)
(0.00114606 -0.00114606 0.10733)
(0.000860719 -0.00114758 0.107309)
(0.00057424 -0.00114861 0.107295)
(0.000287245 -0.00114927 0.107286)
(-3.37186e-11 -0.0011495 0.107283)
(-0.000287245 -0.00114927 0.107286)
(-0.00057424 -0.00114861 0.107295)
(-0.000860719 -0.00114758 0.107309)
(-0.00114606 -0.00114606 0.10733)
(-0.00142903 -0.00114327 0.107355)
(-0.001711 -0.00113722 0.107386)
(-0.0020001 -0.00112888 0.107422)
(0.00199774 -0.00141556 0.107447)
(0.00170854 -0.00142175 0.107411)
(0.00142632 -0.00142632 0.107381)
(0.00114327 -0.00142903 0.107355)
(0.000858045 -0.0014312 0.107336)
(0.00057214 -0.00143306 0.107321)
(0.0002861 -0.00143434 0.107313)
(-4.06637e-11 -0.00143479 0.10731)
(-0.0002861 -0.00143434 0.107313)
(-0.00057214 -0.00143306 0.107321)
(-0.000858045 -0.0014312 0.107336)
(-0.00114327 -0.00142903 0.107355)
(-0.00142632 -0.00142632 0.107381)
(-0.00170854 -0.00142175 0.107411)
(-0.00199774 -0.00141556 0.107447)
(0.00200041 -0.00171057 0.107477)
(0.00170829 -0.00170829 0.107441)
(0.00142175 -0.00170854 0.107411)
(0.00113722 -0.001711 0.107386)
(0.000852374 -0.00171413 0.107367)
(0.000567902 -0.00171694 0.107353)
(0.000283859 -0.00171884 0.107344)
(-4.56983e-11 -0.00171951 0.107342)
(-0.000283859 -0.00171884 0.107344)
(-0.000567903 -0.00171694 0.107353)
(-0.000852374 -0.00171413 0.107367)
(-0.00113722 -0.001711 0.107386)
(-0.00142175 -0.00170854 0.107411)
(-0.00170829 -0.00170829 0.107441)
(-0.00200041 -0.00171057 0.107477)
(0.00200999 -0.00200999 0.107513)
(0.00171057 -0.00200041 0.107477)
(0.00141556 -0.00199774 0.107447)
(0.00112888 -0.0020001 0.107422)
(0.000845174 -0.00200302 0.107403)
(0.000562851 -0.00200532 0.107389)
(0.000281271 -0.00200677 0.107381)
(-4.91206e-11 -0.00200726 0.107378)
(-0.000281271 -0.00200677 0.107381)
(-0.000562851 -0.00200532 0.107389)
(-0.000845174 -0.00200302 0.107403)
(-0.00112888 -0.0020001 0.107422)
(-0.00141556 -0.00199774 0.107447)
(-0.00171057 -0.00200041 0.107477)
(-0.00200999 -0.00200999 0.107513)
(0.00122986 0.00122986 0.125924)
(0.00107165 0.00126636 0.12584)
(0.000894327 0.00129446 0.125766)
(0.000714557 0.00131445 0.125705)
(0.00053515 0.00132956 0.125656)
(0.000356252 0.00134058 0.125621)
(0.00017793 0.00134732 0.1256)
(9.17596e-11 0.00134959 0.125593)
(-0.00017793 0.00134732 0.1256)
(-0.000356252 0.00134058 0.125621)
(-0.00053515 0.00132956 0.125656)
(-0.000714556 0.00131445 0.125705)
(-0.000894327 0.00129446 0.125766)
(-0.00107165 0.00126636 0.12584)
(-0.00122986 0.00122986 0.125924)
(0.00126636 0.00107165 0.12584)
(0.00109224 0.00109224 0.125751)
(0.000909867 0.00111222 0.125675)
(0.000725943 0.00112726 0.125611)
(0.000543293 0.00113824 0.125561)
(0.000361572 0.00114594 0.125525)
(0.000180559 0.00115058 0.125503)
(7.29718e-11 0.00115213 0.125496)
(-0.000180559 0.00115058 0.125503)
(-0.000361572 0.00114594 0.125525)
(-0.000543293 0.00113824 0.125561)
(-0.000725943 0.00112726 0.125611)
(-0.000909867 0.00111222 0.125675)
(-0.00109224 0.00109224 0.125751)
(-0.00126636 0.00107165 0.12584)
(0.00129446 0.000894327 0.125766)
(0.00111222 0.000909867 0.125675)
(0.000924815 0.000924814 0.125596)
(0.000737299 0.000936903 0.12553)
(0.000551555 0.000945864 0.125479)
(0.000367009 0.000952042 0.125441)
(0.000183265 0.000955694 0.125419)
(5.55345e-11 0.000956906 0.125412)
(-0.000183265 0.000955694 0.125419)
(-0.000367009 0.000952042 0.125441)
(-0.000551555 0.000945865 0.125479)
(-0.000737299 0.000936903 0.12553)
(-0.000924814 0.000924815 0.125596)
(-0.00111222 0.000909867 0.125675)
(-0.00129446 0.000894327 0.125766)
(0.00131445 0.000714556 0.125705)
(0.00112726 0.000725943 0.125611)
(0.000936903 0.000737299 0.12553)
(0.000746967 0.000746967 0.125463)
(0.000558773 0.000754302 0.12541)
(0.000371811 0.000759351 0.125372)
(0.000185668 0.000762311 0.12535)
(3.942e-11 0.000763289 0.125342)
(-0.000185668 0.000762311 0.12535)
(-0.000371811 0.000759351 0.125372)
(-0.000558773 0.000754302 0.12541)
(-0.000746967 0.000746967 0.125463)
(-0.000936903 0.000737299 0.12553)
(-0.00112726 0.000725943 0.125611)
(-0.00131445 0.000714557 0.125705)
(0.00132956 0.00053515 0.125656)
(0.00113824 0.000543293 0.125561)
(0.000945865 0.000551555 0.125479)
(0.000754302 0.000558773 0.12541)
(0.000564325 0.000564325 0.125357)
(0.000375527 0.000568149 0.125318)
(0.000187533 0.00057038 0.125295)
(2.45951e-11 0.000571114 0.125287)
(-0.000187533 0.00057038 0.125295)
(-0.000375527 0.000568149 0.125318)
(-0.000564325 0.000564325 0.125357)
(-0.000754302 0.000558773 0.12541)
(-0.000945864 0.000551555 0.125479)
(-0.00113824 0.000543293 0.125561)
(-0.00132956 0.00053515 0.125656)
(0.00134058 0.000356252 0.125621)
(0.00114594 0.000361572 0.125525)
(0.000952042 0.000367009 0.125441)
(0.000759351 0.000371811 0.125372)
(0.000568149 0.000375527 0.125318)
(0.000378086 0.000378086 0.125279)
(0.000188817 0.000379574 0.125256)
(1.12428e-11 0.000380062 0.125248)
(-0.000188817 0.000379574 0.125256)
(-0.000378086 0.000378086 0.125279)
(-0.000568149 0.000375527 0.125318)
(-0.000759351 0.000371811 0.125372)
(-0.000952042 0.000367009 0.125441)
(-0.00114594 0.000361572 0.125525)
(-0.00134058 0.000356252 0.125621)
(0.00134732 0.00017793 0.1256)
(0.00115058 0.000180559 0.125503)
(0.000955694 0.000183265 0.125419)
(0.000762311 0.000185668 0.12535)
(0.00057038 0.000187533 0.125295)
(0.000379574 0.000188817 0.125256)
(0.000189562 0.000189562 0.125232)
(-9.23871e-13 0.000189806 0.125224)
(-0.000189562 0.000189562 0.125232)
(-0.000379574 0.000188817 0.125256)
(-0.00057038 0.000187533 0.125295)
(-0.000762311 0.000185668 0.12535)
(-0.000955694 0.000183265 0.125419)
(-0.00115058 0.000180559 0.125503)
(-0.00134732 0.00017793 0.1256)
(0.00134959 -5.32882e-11 0.125593)
(0.00115213 -4.20018e-11 0.125496)
(0.000956906 -3.08685e-11 0.125412)
(0.000763289 -1.99248e-11 0.125342)
(0.000571114 -9.3281e-12 0.125287)
(0.000380062 1.06195e-12 0.125248)
(0.000189806 1.14663e-11 0.125224)
(-1.15968e-11 2.18091e-11 0.125216)
(-0.000189806 3.21903e-11 0.125224)
(-0.000380062 4.26816e-11 0.125248)
(-0.000571114 5.32154e-11 0.125287)
(-0.000763289 6.37e-11 0.125342)
(-0.000956906 7.40334e-11 0.125412)
(-0.00115213 8.41704e-11 0.125496)
(-0.00134959 9.43173e-11 0.125593)
(0.00134732 -0.00017793 0.1256)
(0.00115058 -0.000180559 0.125503)
(0.000955694 -0.000183265 0.125419)
(0.000762311 -0.000185668 0.12535)
(0.00057038 -0.000187533 0.125295)
(0.000379574 -0.000188817 0.125256)
(0.000189562 -0.000189562 0.125232)
(-2.08803e-11 -0.000189806 0.125224)
(-0.000189562 -0.000189562 0.125232)
(-0.000379574 -0.000188817 0.125256)
(-0.00057038 -0.000187533 0.125295)
(-0.000762311 -0.000185668 0.12535)
(-0.000955694 -0.000183265 0.125419)
(-0.00115058 -0.000180559 0.125503)
(-0.00134732 -0.00017793 0.1256)
(0.00134058 -0.000356252 0.125621)
(0.00114594 -0.000361572 0.125525)
(0.000952042 -0.000367009 0.125441)
(0.000759351 -0.000371811 0.125372)
(0.000568149 -0.000375527 0.125318)
(0.000378086 -0.000378086 0.125279)
(0.000188817 -0.000379574 0.125256)
(-2.87214e-11 -0.000380062 0.125248)
(-0.000188817 -0.000379574 0.125256)
(-0.000378086 -0.000378086 0.125279)
(-0.000568149 -0.000375527 0.125318)
(-0.000759351 -0.000371811 0.125372)
(-0.000952042 -0.000367009 0.125441)
(-0.00114594 -0.000361572 0.125525)
(-0.00134058 -0.000356252 0.125621)
(0.00132956 -0.00053515 0.125656)
(0.00113824 -0.000543293 0.125561)
(0.000945864 -0.000551555 0.125479)
(0.000754302 -0.000558773 0.12541)
(0.000564325 -0.000564325 0.125357)
(0.000375527 -0.000568149 0.125318)
(0.000187533 -0.00057038 0.125295)
(-3.51147e-11 -0.000571114 0.125287)
(-0.000187533 -0.00057038 0.125295)
(-0.000375527 -0.000568149 0.125318)
(-0.000564325 -0.000564325 0.125357)
(-0.000754302 -0.000558773 0.12541)
(-0.000945865 -0.000551555 0.125479)
(-0.00113824 -0.000543293 0.125561)
(-0.00132956 -0.00053515 0.125656)
(0.00131445 -0.000714556 0.125705)
(0.00112726 -0.000725943 0.125611)
(0.000936903 -0.000737299 0.12553)
(0.000746967 -0.000746967 0.125463)
(0.000558773 -0.000754302 0.12541)
(0.000371811 -0.000759351 0.125372)
(0.000185668 -0.000762311 0.12535)
(-4.02482e-11 -0.000763289 0.125342)
(-0.000185668 -0.000762311 0.12535)
(-0.000371811 -0.000759351 0.125372)
(-0.000558773 -0.000754302 0.12541)
(-0.000746967 -0.000746967 0.125463)
(-0.000936903 -0.000737299 0.12553)
(-0.00112726 -0.000725943 0.125611)
(-0.00131445 -0.000714556 0.125705)
(0.00129446 -0.000894327 0.125766)
(0.00111222 -0.000909867 0.125675)
(0.000924814 -0.000924814 0.125596)
(0.000737299 -0.000936903 0.12553)
(0.000551555 -0.000945865 0.125479)
(0.000367009 -0.000952042 0.125441)
(0.000183265 -0.000955694 0.125419)
(-4.40197e-11 -0.000956906 0.125412)
(-0.000183265 -0.000955694 0.125419)
(-0.000367009 -0.000952042 0.125441)
(-0.000551555 -0.000945864 0.125479)
(-0.000737299 -0.000936903 0.12553)
(-0.000924815 -0.000924814 0.125596)
(-0.00111222 -0.000909867 0.125675)
(-0.00129446 -0.000894327 0.125766)
(0.00126636 -0.00107165 0.12584)
(0.00109224 -0.00109224 0.125751)
(0.000909867 -0.00111222 0.125675)
(0.000725943 -0.00112726 0.125611)
(0.000543293 -0.00113824 0.125561)
(0.000361572 -0.00114594 0.125525)
(0.000180559 -0.00115058 0.125503)
(-4.64848e-11 -0.00115213 0.125496)
(-0.000180559 -0.00115058 0.125503)
(-0.000361572 -0.00114594 0.125525)
(-0.000543293 -0.00113824 0.125561)
(-0.000725943 -0.00112726 0.125611)
(-0.000909867 -0.00111222 0.125675)
(-0.00109224 -0.00109224 0.125751)
(-0.00126636 -0.00107165 0.12584)
(0.00122986 -0.00122986 0.125924)
(0.00107165 -0.00126636 0.12584)
(0.000894327 -0.00129446 0.125766)
(0.000714556 -0.00131445 0.125705)
(0.00053515 -0.00132956 0.125656)
(0.000356252 -0.00134058 0.125621)
(0.00017793 -0.00134732 0.1256)
(-4.77873e-11 -0.00134959 0.125593)
(-0.00017793 -0.00134732 0.1256)
(-0.000356252 -0.00134058 0.125621)
(-0.00053515 -0.00132956 0.125656)
(-0.000714556 -0.00131445 0.125705)
(-0.000894327 -0.00129446 0.125766)
(-0.00107165 -0.00126636 0.12584)
(-0.00122986 -0.00122986 0.125924)
(0.000779032 0.000779031 0.133556)
(0.000680234 0.000800331 0.133513)
(0.000573068 0.000813583 0.133466)
(0.000461755 0.000822231 0.133421)
(0.00034814 0.000828093 0.133383)
(0.000232906 0.000831977 0.133354)
(0.000116685 0.000834225 0.133336)
(5.34837e-11 0.000834966 0.13333)
(-0.000116684 0.000834225 0.133336)
(-0.000232906 0.000831977 0.133354)
(-0.00034814 0.000828093 0.133383)
(-0.000461755 0.000822231 0.133421)
(-0.000573068 0.000813583 0.133466)
(-0.000680234 0.000800331 0.133513)
(-0.000779031 0.000779032 0.133556)
(0.000800331 0.000680234 0.133513)
(0.000690172 0.000690172 0.133454)
(0.000578061 0.000700282 0.133396)
(0.000464423 0.000707691 0.133344)
(0.000349701 0.00071263 0.133302)
(0.000233822 0.000715725 0.13327)
(0.000117115 0.000717431 0.133251)
(4.3101e-11 0.000717978 0.133244)
(-0.000117115 0.000717431 0.133251)
(-0.000233822 0.000715725 0.13327)
(-0.000349701 0.00071263 0.133302)
(-0.000464423 0.000707691 0.133344)
(-0.000578061 0.000700282 0.133396)
(-0.000690172 0.000690172 0.133454)
(-0.000800331 0.000680234 0.133513)
(0.000813583 0.000573068 0.133466)
(0.000700282 0.000578061 0.133396)
(0.000584733 0.000584733 0.133331)
(0.000468669 0.000590681 0.133274)
(0.000352328 0.000595055 0.133229)
(0.000235356 0.000597902 0.133195)
(0.000117828 0.000599487 0.133174)
(3.33496e-11 0.000599994 0.133168)
(-0.000117828 0.000599487 0.133174)
(-0.000235356 0.000597902 0.133195)
(-0.000352328 0.000595055 0.133229)
(-0.000468669 0.000590681 0.133274)
(-0.000584733 0.000584733 0.133331)
(-0.000700282 0.000578061 0.133396)
(-0.000813583 0.000573068 0.133466)
(0.000822231 0.000461755 0.133421)
(0.000707691 0.000464423 0.133344)
(0.000590681 0.000468669 0.133274)
(0.000473034 0.000473034 0.133215)
(0.000355278 0.000476544 0.133167)
(0.000237165 0.000478952 0.133132)
(0.000118689 0.000480328 0.13311)
(2.41249e-11 0.000480773 0.133103)
(-0.000118689 0.000480328 0.13311)
(-0.000237165 0.000478952 0.133132)
(-0.000355278 0.000476544 0.133167)
(-0.000473034 0.000473034 0.133215)
(-0.000590681 0.000468669 0.133274)
(-0.000707691 0.000464423 0.133344)
(-0.000822231 0.000461755 0.133421)
(0.000828093 0.00034814 0.133383)
(0.00071263 0.000349701 0.133302)
(0.000595055 0.000352328 0.133229)
(0.000476544 0.000355278 0.133167)
(0.000357798 0.000357798 0.133117)
(0.000238769 0.000359595 0.133081)
(0.000119468 0.000360646 0.13306)
(1.54435e-11 0.000360989 0.133052)
(-0.000119468 0.000360646 0.13306)
(-0.000238769 0.000359596 0.133081)
(-0.000357798 0.000357798 0.133117)
(-0.000476544 0.000355278 0.133167)
(-0.000595055 0.000352328 0.133229)
(-0.00071263 0.000349701 0.133302)
(-0.000828093 0.00034814 0.133383)
(0.000831977 0.000232906 0.133354)
(0.000715725 0.000233822 0.13327)
(0.000597902 0.000235356 0.133195)
(0.000478952 0.000237165 0.133132)
(0.000359595 0.000238769 0.133081)
(0.000239944 0.000239944 0.133045)
(0.000120046 0.00024064 0.133023)
(7.47479e-12 0.00024087 0.133016)
(-0.000120046 0.00024064 0.133023)
(-0.000239944 0.000239944 0.133045)
(-0.000359595 0.000238769 0.133081)
(-0.000478952 0.000237165 0.133132)
(-0.000597902 0.000235356 0.133195)
(-0.000715725 0.000233822 0.13327)
(-0.000831977 0.000232906 0.133354)
(0.000834225 0.000116684 0.133336)
(0.000717431 0.000117115 0.133251)
(0.000599487 0.000117828 0.133174)
(0.000480328 0.000118689 0.13311)
(0.000360646 0.000119468 0.13306)
(0.00024064 0.000120046 0.133023)
(0.000120392 0.000120392 0.133001)
(8.49389e-14 0.000120506 0.132993)
(-0.000120392 0.000120392 0.133001)
(-0.00024064 0.000120046 0.133023)
(-0.000360646 0.000119468 0.13306)
(-0.000480328 0.000118689 0.13311)
(-0.000599487 0.000117828 0.133174)
(-0.000717431 0.000117115 0.133251)
(-0.000834225 0.000116685 0.133336)
(0.000834966 -2.89308e-11 0.13333)
(0.000717978 -2.22555e-11 0.133244)
(0.000599994 -1.54041e-11 0.133168)
(0.000480773 -8.40597e-12 0.133103)
(0.000360989 -1.43262e-12 0.133052)
(0.00024087 5.45072e-12 0.133016)
(0.000120506 1.22907e-11 0.132993)
(-6.5341e-12 1.90034e-11 0.132986)
(-0.000120506 2.56208e-11 0.132993)
(-0.00024087 3.21802e-11 0.133016)
(-0.000360989 3.86694e-11 0.133052)
(-0.000480773 4.5081e-11 0.133103)
(-0.000599994 5.14167e-11 0.133168)
(-0.000717978 5.76605e-11 0.133244)
(-0.000834966 6.38875e-11 0.13333)
(0.000834225 -0.000116684 0.133336)
(0.000717431 -0.000117115 0.133251)
(0.000599487 -0.000117828 0.133174)
(0.000480328 -0.000118689 0.13311)
(0.000360646 -0.000119468 0.13306)
(0.00024064 -0.000120046 0.133023)
(0.000120392 -0.000120392 0.133001)
(-1.24227e-11 -0.000120506 0.132993)
(-0.000120392 -0.000120392 0.133001)
(-0.00024064 -0.000120046 0.133023)
(-0.000360646 -0.000119467 0.13306)
(-0.000480328 -0.000118689 0.13311)
(-0.000599487 -0.000117828 0.133174)
(-0.000717431 -0.000117115 0.133251)
(-0.000834225 -0.000116684 0.133336)
(0.000831977 -0.000232906 0.133354)
(0.000715725 -0.000233822 0.13327)
(0.000597902 -0.000235356 0.133195)
(0.000478952 -0.000237165 0.133132)
(0.000359595 -0.000238769 0.133081)
(0.000239944 -0.000239944 0.133045)
(0.000120046 -0.00024064 0.133023)
(-1.75169e-11 -0.00024087 0.133016)
(-0.000120046 -0.00024064 0.133023)
(-0.000239944 -0.000239944 0.133045)
(-0.000359595 -0.000238769 0.133081)
(-0.000478952 -0.000237165 0.133132)
(-0.000597902 -0.000235356 0.133195)
(-0.000715725 -0.000233822 0.13327)
(-0.000831977 -0.000232906 0.133354)
(0.000828093 -0.00034814 0.133383)
(0.00071263 -0.000349701 0.133302)
(0.000595055 -0.000352328 0.133229)
(0.000476544 -0.000355278 0.133167)
(0.000357798 -0.000357798 0.133117)
(0.000238769 -0.000359595 0.133081)
(0.000119468 -0.000360646 0.13306)
(-2.18061e-11 -0.000360989 0.133052)
(-0.000119468 -0.000360646 0.13306)
(-0.000238769 -0.000359595 0.133081)
(-0.000357798 -0.000357798 0.133117)
(-0.000476544 -0.000355278 0.133167)
(-0.000595055 -0.000352328 0.133229)
(-0.00071263 -0.000349701 0.133302)
(-0.000828093 -0.00034814 0.133383)
(0.000822231 -0.000461755 0.133421)
(0.000707691 -0.000464423 0.133344)
(0.000590681 -0.000468669 0.133274)
(0.000473034 -0.000473034 0.133215)
(0.000355278 -0.000476544 0.133167)
(0.000237165 -0.000478952 0.133132)
(0.000118689 -0.000480328 0.13311)
(-2.539e-11 -0.000480773 0.133103)
(-0.000118689 -0.000480328 0.13311)
(-0.000237165 -0.000478952 0.133132)
(-0.000355278 -0.000476544 0.133167)
(-0.000473034 -0.000473034 0.133215)
(-0.000590681 -0.000468669 0.133274)
(-0.000707691 -0.000464423 0.133344)
(-0.000822231 -0.000461755 0.133421)
(0.000813583 -0.000573068 0.133466)
(0.000700282 -0.000578061 0.133396)
(0.000584733 -0.000584733 0.133331)
(0.000468669 -0.000590681 0.133274)
(0.000352328 -0.000595055 0.133229)
(0.000235356 -0.000597902 0.133195)
(0.000117828 -0.000599487 0.133174)
(-2.81619e-11 -0.000599994 0.133168)
(-0.000117828 -0.000599487 0.133174)
(-0.000235356 -0.000597902 0.133195)
(-0.000352328 -0.000595055 0.133229)
(-0.000468669 -0.000590681 0.133274)
(-0.000584733 -0.000584733 0.133331)
(-0.000700282 -0.000578061 0.133396)
(-0.000813583 -0.000573068 0.133466)
(0.000800331 -0.000680234 0.133513)
(0.000690172 -0.000690172 0.133454)
(0.000578061 -0.000700282 0.133396)
(0.000464423 -0.000707691 0.133344)
(0.000349701 -0.00071263 0.133302)
(0.000233822 -0.000715725 0.13327)
(0.000117115 -0.000717431 0.133251)
(-3.01453e-11 -0.000717978 0.133244)
(-0.000117115 -0.000717431 0.133251)
(-0.000233822 -0.000715725 0.13327)
(-0.000349701 -0.00071263 0.133302)
(-0.000464423 -0.000707691 0.133344)
(-0.000578061 -0.000700282 0.133396)
(-0.000690172 -0.000690172 0.133454)
(-0.000800331 -0.000680234 0.133513)
(0.000779031 -0.000779032 0.133556)
(0.000680234 -0.000800331 0.133513)
(0.000573068 -0.000813583 0.133466)
(0.000461755 -0.000822231 0.133421)
(0.00034814 -0.000828093 0.133383)
(0.000232906 -0.000831977 0.133354)
(0.000116684 -0.000834225 0.133336)
(-3.12497e-11 -0.000834966 0.13333)
(-0.000116684 -0.000834225 0.133336)
(-0.000232906 -0.000831977 0.133354)
(-0.00034814 -0.000828093 0.133383)
(-0.000461755 -0.000822231 0.133421)
(-0.000573068 -0.000813583 0.133466)
(-0.000680234 -0.000800331 0.133513)
(-0.000779032 -0.000779031 0.133556)
(0.00059456 0.00059456 0.139008)
(0.00051623 0.000609798 0.13905)
(0.000433556 0.00062139 0.139061)
(0.000349012 0.000630136 0.139054)
(0.00026309 0.000636325 0.139041)
(0.000176022 0.000640392 0.139027)
(8.81952e-05 0.000642692 0.139018)
(4.50073e-11 0.000643437 0.139015)
(-8.81951e-05 0.000642693 0.139018)
(-0.000176022 0.000640392 0.139027)
(-0.00026309 0.000636325 0.139041)
(-0.000349012 0.000630136 0.139054)
(-0.000433556 0.00062139 0.139061)
(-0.00051623 0.000609798 0.13905)
(-0.00059456 0.00059456 0.139008)
(0.000609798 0.00051623 0.13905)
(0.000525086 0.000525086 0.139058)
(0.000439667 0.000534207 0.139045)
(0.000353196 0.000541689 0.139023)
(0.000265881 0.000547151 0.138998)
(0.000177753 0.00055076 0.138978)
(8.90291e-05 0.000552793 0.138965)
(3.71016e-11 0.000553447 0.13896)
(-8.9029e-05 0.000552793 0.138965)
(-0.000177753 0.00055076 0.138978)
(-0.000265881 0.000547151 0.138998)
(-0.000353196 0.00054169 0.139023)
(-0.000439667 0.000534208 0.139045)
(-0.000525086 0.000525086 0.139058)
(-0.000609798 0.00051623 0.13905)
(0.00062139 0.000433556 0.139061)
(0.000534207 0.000439667 0.139045)
(0.000446303 0.000446303 0.139015)
(0.000357809 0.000452225 0.138981)
(0.000268923 0.000456836 0.138949)
(0.000179595 0.00046001 0.138924)
(8.98983e-05 0.000461839 0.138908)
(2.97042e-11 0.000462434 0.138902)
(-8.98982e-05 0.000461839 0.138908)
(-0.000179595 0.00046001 0.138924)
(-0.000268923 0.000456836 0.138949)
(-0.000357809 0.000452225 0.138981)
(-0.000446303 0.000446303 0.139015)
(-0.000534207 0.000439667 0.139045)
(-0.00062139 0.000433556 0.139061)
(0.000630136 0.000349012 0.139054)
(0.00054169 0.000353196 0.139023)
(0.000452225 0.000357809 0.138981)
(0.000362171 0.000362171 0.138938)
(0.000271908 0.000365772 0.138901)
(0.000181434 0.000368362 0.138873)
(9.07722e-05 0.000369895 0.138855)
(2.26902e-11 0.000370401 0.138849)
(-9.07722e-05 0.000369896 0.138855)
(-0.000181434 0.000368362 0.138873)
(-0.000271908 0.000365772 0.138901)
(-0.000362171 0.000362171 0.138938)
(-0.000452225 0.000357809 0.138981)
(-0.000541689 0.000353196 0.139023)
(-0.000630136 0.000349012 0.139054)
(0.000636325 0.00026309 0.139041)
(0.000547151 0.000265881 0.138998)
(0.000456836 0.000268923 0.138949)
(0.000365772 0.000271908 0.138901)
(0.00027448 0.00027448 0.13886)
(0.000183066 0.000276398 0.13883)
(9.15596e-05 0.000277562 0.138811)
(1.60848e-11 0.00027795 0.138804)
(-9.15595e-05 0.000277562 0.138811)
(-0.000183066 0.000276398 0.13883)
(-0.00027448 0.00027448 0.13886)
(-0.000365771 0.000271908 0.138901)
(-0.000456836 0.000268923 0.138949)
(-0.000547151 0.000265881 0.138998)
(-0.000636325 0.00026309 0.139041)
(0.000640392 0.000176022 0.139027)
(0.00055076 0.000177753 0.138978)
(0.00046001 0.000179595 0.138924)
(0.000368362 0.000181434 0.138873)
(0.000276398 0.000183066 0.13883)
(0.000184314 0.000184314 0.138797)
(9.21712e-05 0.000185085 0.138778)
(1.00288e-11 0.000185345 0.138771)
(-9.21711e-05 0.000185085 0.138778)
(-0.000184314 0.000184314 0.138797)
(-0.000276398 0.000183066 0.13883)
(-0.000368362 0.000181434 0.138873)
(-0.00046001 0.000179595 0.138924)
(-0.00055076 0.000177753 0.138978)
(-0.000640392 0.000176022 0.139027)
(0.000642692 8.81951e-05 0.139018)
(0.000552793 8.9029e-05 0.138965)
(0.000461839 8.98982e-05 0.138908)
(0.000369895 9.07722e-05 0.138855)
(0.000277562 9.15596e-05 0.138811)
(0.000185085 9.21712e-05 0.138778)
(9.25532e-05 9.25532e-05 0.138758)
(4.45288e-12 9.26824e-05 0.138751)
(-9.25532e-05 9.25532e-05 0.138758)
(-0.000185085 9.21712e-05 0.138778)
(-0.000277562 9.15596e-05 0.138811)
(-0.000369895 9.07723e-05 0.138855)
(-0.000461839 8.98983e-05 0.138908)
(-0.000552793 8.90291e-05 0.138965)
(-0.000642692 8.81952e-05 0.139018)
(0.000643437 -1.16533e-11 0.139015)
(0.000553447 -6.16602e-12 0.13896)
(0.000462434 -7.10091e-13 0.138902)
(0.000370401 4.70271e-12 0.138849)
(0.00027795 1.00142e-11 0.138804)
(0.000185345 1.521e-11 0.138771)
(9.26824e-05 2.04138e-11 0.138751)
(-5.17939e-13 2.56445e-11 0.138744)
(-9.26824e-05 3.09559e-11 0.138751)
(-0.000185345 3.63704e-11 0.138771)
(-0.00027795 4.18211e-11 0.138804)
(-0.000370401 4.7199e-11 0.138849)
(-0.000462434 5.23884e-11 0.138902)
(-0.000553447 5.72695e-11 0.13896)
(-0.000643437 6.18605e-11 0.139015)
(0.000642692 -8.81951e-05 0.139018)
(0.000552793 -8.90291e-05 0.138965)
(0.000461839 -8.98982e-05 0.138908)
(0.000369895 -9.07722e-05 0.138855)
(0.000277562 -9.15595e-05 0.138811)
(0.000185085 -9.21711e-05 0.138778)
(9.25532e-05 -9.25532e-05 0.138758)
(-4.89386e-12 -9.26824e-05 0.138751)
(-9.25532e-05 -9.25531e-05 0.138758)
(-0.000185085 -9.21711e-05 0.138778)
(-0.000277562 -9.15595e-05 0.138811)
(-0.000369895 -9.07722e-05 0.138855)
(-0.000461839 -8.98982e-05 0.138908)
(-0.000552793 -8.9029e-05 0.138965)
(-0.000642692 -8.81951e-05 0.139018)
(0.000640392 -0.000176022 0.139027)
(0.00055076 -0.000177753 0.138978)
(0.00046001 -0.000179595 0.138924)
(0.000368362 -0.000181434 0.138873)
(0.000276398 -0.000183066 0.13883)
(0.000184314 -0.000184314 0.138797)
(9.21712e-05 -0.000185085 0.138778)
(-8.63403e-12 -0.000185345 0.138771)
(-9.21712e-05 -0.000185085 0.138778)
(-0.000184314 -0.000184314 0.138797)
(-0.000276398 -0.000183066 0.13883)
(-0.000368362 -0.000181434 0.138873)
(-0.00046001 -0.000179594 0.138924)
(-0.00055076 -0.000177753 0.138978)
(-0.000640392 -0.000176022 0.139027)
(0.000636325 -0.00026309 0.139041)
(0.000547151 -0.000265881 0.138998)