/*--------------------------------*- C++ -*----------------------------------*\
| =========                 |                                                 |
| \\      /  F ield         | OpenFOAM: The Open Source CFD Toolbox           |
|  \\    /   O peration     | Version:  2312                                  |
|   \\  /    A nd           | Website:  www.openfoam.com                      |
|    \\/     M anipulation  |                                                 |
\*---------------------------------------------------------------------------*/
FoamFile
{
    version     2.0;
    format      ascii;
    arch        "LSB;label=32;scalar=64";
    class       volScalarField;
    location    "448";
    object      yPlus;
}
// * * * * * * * * * * * * * * * * * * * * * * * * * * * * * * * * * * * * * //

dimensions      [0 0 0 0 0 0 0];

internalField   uniform 0;

boundaryField
{
    walls
    {
        type            calculated;
        value           nonuniform List<scalar> 
6000
(
1.23177
0.909557
0.773425
0.753263
0.742754
0.726058
0.715118
0.706364
0.69879
0.692482
0.687092
0.682418
0.678341
0.674751
0.67157
0.668735
0.666195
0.663911
0.661849
0.659981
0.658285
0.656741
0.655333
0.654047
0.652869
0.65179
0.650801
0.649892
0.649057
0.648288
0.647581
0.646929
0.646329
0.645775
0.645264
0.644793
0.644359
0.643957
0.643586
0.643244
0.642928
0.642635
0.642365
0.642116
0.641885
0.641672
0.641474
0.641292
0.641123
0.640967
0.640823
0.640689
0.640566
0.640452
0.640347
0.640249
0.640159
0.640075
0.639998
0.639926
0.63986
0.639799
0.639742
0.63969
0.639641
0.639596
0.639555
0.639516
0.639481
0.639448
0.639417
0.639389
0.639363
0.639339
0.639316
0.639296
0.639277
0.639259
0.639242
0.639227
0.639213
0.6392
0.639188
0.639176
0.639166
0.639156
0.639147
0.639139
0.639131
0.639124
0.639118
0.639112
0.639106
0.639101
0.639096
0.639092
0.639088
0.639084
0.639081
0.639077
1.27403
0.941674
0.801009
0.780026
0.769096
0.751779
0.740433
0.731361
0.723512
0.716976
0.71139
0.706548
0.702322
0.698603
0.695307
0.692369
0.689738
0.687371
0.685234
0.683299
0.681542
0.679942
0.678483
0.67715
0.67593
0.674813
0.673787
0.672846
0.67198
0.671184
0.670451
0.669776
0.669153
0.66858
0.668051
0.667563
0.667112
0.666696
0.666312
0.665957
0.66563
0.665327
0.665047
0.664788
0.664549
0.664328
0.664124
0.663935
0.66376
0.663599
0.663449
0.663311
0.663183
0.663065
0.662955
0.662854
0.66276
0.662674
0.662594
0.66252
0.662451
0.662388
0.662329
0.662275
0.662224
0.662178
0.662135
0.662095
0.662058
0.662024
0.661992
0.661963
0.661936
0.661911
0.661888
0.661867
0.661847
0.661828
0.661811
0.661796
0.661781
0.661767
0.661755
0.661743
0.661732
0.661722
0.661713
0.661704
0.661696
0.661689
0.661682
0.661676
0.66167
0.661665
0.66166
0.661655
0.661651
0.661647
0.661644
0.66164
1.31206
0.970558
0.825687
0.803971
0.792708
0.77484
0.763126
0.753763
0.745664
0.738919
0.733156
0.72816
0.7238
0.719963
0.716562
0.713531
0.710816
0.708374
0.706169
0.704172
0.702359
0.700709
0.699203
0.697828
0.696569
0.695416
0.694358
0.693386
0.692493
0.691671
0.690915
0.690218
0.689577
0.688985
0.688439
0.687935
0.68747
0.687041
0.686645
0.686279
0.685941
0.685628
0.68534
0.685073
0.684826
0.684598
0.684387
0.684192
0.684012
0.683845
0.683691
0.683548
0.683416
0.683294
0.683181
0.683077
0.68298
0.682891
0.682808
0.682732
0.682661
0.682596
0.682535
0.682479
0.682427
0.682379
0.682335
0.682294
0.682256
0.68222
0.682188
0.682158
0.68213
0.682104
0.68208
0.682058
0.682038
0.682019
0.682001
0.681985
0.68197
0.681956
0.681943
0.68193
0.681919
0.681909
0.681899
0.68189
0.681882
0.681874
0.681868
0.681861
0.681855
0.68185
0.681845
0.68184
0.681836
0.681832
0.681828
0.681824
1.34452
0.995296
0.846836
0.824468
0.812931
0.794597
0.78257
0.77296
0.764647
0.757723
0.751808
0.746679
0.742204
0.738265
0.734774
0.731662
0.728875
0.726368
0.724105
0.722055
0.720194
0.7185
0.716954
0.715543
0.71425
0.713066
0.71198
0.710983
0.710066
0.709222
0.708446
0.707731
0.707072
0.706464
0.705904
0.705387
0.704909
0.704469
0.704062
0.703686
0.703339
0.703018
0.702722
0.702448
0.702195
0.701961
0.701744
0.701544
0.701359
0.701188
0.701029
0.700883
0.700747
0.700622
0.700506
0.700399
0.7003
0.700208
0.700123
0.700045
0.699972
0.699905
0.699843
0.699785
0.699732
0.699683
0.699637
0.699595
0.699556
0.69952
0.699486
0.699456
0.699427
0.6994
0.699376
0.699353
0.699332
0.699313
0.699295
0.699278
0.699262
0.699248
0.699235
0.699222
0.699211
0.6992
0.69919
0.699181
0.699173
0.699165
0.699158
0.699151
0.699145
0.699139
0.699134
0.699129
0.699125
0.699121
0.699117
0.699113
1.3706
1.01524
0.863902
0.840986
0.829227
0.810519
0.798241
0.788434
0.779949
0.772882
0.766844
0.761609
0.757041
0.753021
0.749457
0.74628
0.743435
0.740876
0.738566
0.736473
0.734573
0.732843
0.731266
0.729824
0.728505
0.727296
0.726187
0.725169
0.724233
0.723372
0.722579
0.721849
0.721176
0.720556
0.719984
0.719456
0.718969
0.718519
0.718103
0.71772
0.717365
0.717038
0.716735
0.716456
0.716197
0.715958
0.715737
0.715533
0.715344
0.715169
0.715007
0.714858
0.714719
0.714592
0.714473
0.714364
0.714263
0.714169
0.714082
0.714002
0.713928
0.71386
0.713796
0.713737
0.713683
0.713633
0.713586
0.713543
0.713503
0.713466
0.713432
0.713401
0.713371
0.713344
0.713319
0.713296
0.713275
0.713255
0.713236
0.713219
0.713203
0.713189
0.713175
0.713162
0.713151
0.71314
0.71313
0.71312
0.713112
0.713104
0.713096
0.71309
0.713083
0.713078
0.713072
0.713067
0.713063
0.713059
0.713055
0.713051
1.38968
1.02987
0.876424
0.853099
0.841176
0.822192
0.80973
0.799779
0.791169
0.783998
0.77787
0.772558
0.767922
0.763841
0.760225
0.757001
0.754113
0.751516
0.749171
0.747047
0.745118
0.743362
0.741761
0.740298
0.738959
0.737732
0.736607
0.735573
0.734623
0.733749
0.732944
0.732203
0.73152
0.73089
0.73031
0.729774
0.729279
0.728823
0.728401
0.728012
0.727652
0.72732
0.727012
0.726728
0.726466
0.726223
0.725999
0.725792
0.7256
0.725423
0.725259
0.725106
0.724966
0.724837
0.724717
0.724605
0.724503
0.724408
0.72432
0.724238
0.724163
0.724093
0.724029
0.723969
0.723914
0.723863
0.723816
0.723772
0.723732
0.723694
0.72366
0.723628
0.723598
0.72357
0.723545
0.723522
0.7235
0.72348
0.723461
0.723444
0.723427
0.723413
0.723399
0.723386
0.723374
0.723363
0.723353
0.723343
0.723334
0.723326
0.723319
0.723312
0.723306
0.7233
0.723294
0.723289
0.723285
0.723281
0.723276
0.723272
1.4013
1.03879
0.884071
0.860493
0.848471
0.829316
0.816743
0.806704
0.798017
0.790783
0.784601
0.779241
0.774564
0.770447
0.766798
0.763545
0.760632
0.758011
0.755645
0.753502
0.751556
0.749784
0.748169
0.746692
0.745341
0.744103
0.742968
0.741924
0.740966
0.740084
0.739272
0.738524
0.737835
0.7372
0.736614
0.736073
0.735574
0.735113
0.734688
0.734295
0.733932
0.733597
0.733287
0.733
0.732735
0.73249
0.732264
0.732055
0.731861
0.731683
0.731517
0.731363
0.731222
0.731091
0.73097
0.730858
0.730754
0.730658
0.73057
0.730488
0.730412
0.730341
0.730276
0.730216
0.73016
0.730109
0.730061
0.730017
0.729976
0.729939
0.729904
0.729871
0.729841
0.729814
0.729788
0.729764
0.729743
0.729722
0.729703
0.729686
0.729669
0.729654
0.72964
0.729627
0.729615
0.729604
0.729594
0.729584
0.729575
0.729567
0.72956
0.729553
0.729546
0.72954
0.729535
0.72953
0.729525
0.729521
0.729517
0.729513
1.4052
1.04179
0.886643
0.862979
0.850923
0.831712
0.8191
0.809032
0.80032
0.793064
0.786863
0.781488
0.776797
0.772668
0.769008
0.765745
0.762823
0.760195
0.757821
0.755672
0.75372
0.751943
0.750323
0.748842
0.747487
0.746245
0.745106
0.74406
0.743098
0.742214
0.741399
0.740649
0.739958
0.739321
0.738733
0.738191
0.73769
0.737228
0.736802
0.736408
0.736043
0.735707
0.735396
0.735109
0.734843
0.734598
0.734371
0.734161
0.733967
0.733787
0.733621
0.733467
0.733325
0.733194
0.733073
0.73296
0.732856
0.73276
0.732671
0.732589
0.732512
0.732442
0.732377
0.732316
0.732261
0.732209
0.732161
0.732117
0.732076
0.732038
0.732003
0.73197
0.73194
0.731913
0.731887
0.731863
0.731841
0.731821
0.731802
0.731784
0.731768
0.731753
0.731739
0.731726
0.731714
0.731703
0.731692
0.731682
0.731674
0.731665
0.731658
0.731651
0.731645
0.731639
0.731633
0.731628
0.731624
0.731619
0.731615
0.731611
1.4013
1.03879
0.884071
0.860493
0.848471
0.829316
0.816743
0.806704
0.798017
0.790783
0.784601
0.779241
0.774564
0.770447
0.766798
0.763545
0.760632
0.758011
0.755645
0.753502
0.751556
0.749784
0.748169
0.746692
0.745341
0.744103
0.742968
0.741924
0.740966
0.740084
0.739272
0.738524
0.737835
0.7372
0.736614
0.736073
0.735574
0.735113
0.734688
0.734295
0.733932
0.733597
0.733287
0.733
0.732735
0.73249
0.732264
0.732055
0.731861
0.731683
0.731517
0.731363
0.731222
0.731091
0.73097
0.730858
0.730754
0.730658
0.73057
0.730488
0.730412
0.730341
0.730276
0.730216
0.73016
0.730109
0.730061
0.730017
0.729976
0.729939
0.729904
0.729871
0.729841
0.729814
0.729788
0.729764
0.729743
0.729722
0.729703
0.729686
0.729669
0.729654
0.72964
0.729627
0.729615
0.729604
0.729594
0.729584
0.729575
0.729567
0.72956
0.729553
0.729546
0.72954
0.729535
0.72953
0.729525
0.729521
0.729517
0.729512
1.38968
1.02987
0.876424
0.853099
0.841176
0.822192
0.80973
0.799779
0.791169
0.783998
0.77787
0.772558
0.767922
0.763841
0.760225
0.757001
0.754113
0.751516
0.749171
0.747047
0.745118
0.743362
0.741761
0.740298
0.738959
0.737732
0.736607
0.735573
0.734623
0.733749
0.732944
0.732203
0.73152
0.73089
0.73031
0.729774
0.729279
0.728823
0.728401
0.728012
0.727652
0.72732
0.727012
0.726728
0.726466
0.726223
0.725999
0.725792
0.7256
0.725423
0.725259
0.725106
0.724966
0.724837
0.724717
0.724605
0.724503
0.724408
0.72432
0.724238
0.724163
0.724093
0.724029
0.723969
0.723914
0.723863
0.723816
0.723772
0.723732
0.723694
0.72366
0.723628
0.723598
0.72357
0.723545
0.723522
0.7235
0.72348
0.723461
0.723444
0.723427
0.723413
0.723399
0.723386
0.723374
0.723363
0.723353
0.723343
0.723334
0.723326
0.723319
0.723312
0.723306
0.7233
0.723294
0.723289
0.723285
0.72328
0.723276
0.723272
1.3706
1.01524
0.863902
0.840986
0.829227
0.810519
0.798241
0.788434
0.779949
0.772882
0.766844
0.761609
0.757041
0.753021
0.749457
0.74628
0.743435
0.740876
0.738566
0.736473
0.734573
0.732843
0.731266
0.729824
0.728505
0.727296
0.726187
0.725169
0.724233
0.723372
0.722579
0.721849
0.721176
0.720556
0.719984
0.719456
0.718969
0.718519
0.718103
0.71772
0.717365
0.717038
0.716735
0.716456
0.716197
0.715958
0.715737
0.715533
0.715344
0.715169
0.715007
0.714858
0.714719
0.714592
0.714473
0.714364
0.714263
0.714169
0.714082
0.714002
0.713928
0.71386
0.713796
0.713737
0.713683
0.713633
0.713586
0.713543
0.713503
0.713466
0.713432
0.713401
0.713371
0.713344
0.713319
0.713296
0.713275
0.713255
0.713236
0.713219
0.713203
0.713189
0.713175
0.713162
0.713151
0.71314
0.71313
0.71312
0.713112
0.713104
0.713096
0.71309
0.713083
0.713078
0.713072
0.713067
0.713063
0.713059
0.713054
0.71305
1.34452
0.995296
0.846836
0.824468
0.812931
0.794597
0.78257
0.77296
0.764647
0.757723
0.751808
0.746679
0.742204
0.738265
0.734774
0.731662
0.728875
0.726368
0.724105
0.722055
0.720194
0.7185
0.716954
0.715543
0.71425
0.713066
0.71198
0.710983
0.710066
0.709222
0.708446
0.707731
0.707072
0.706464
0.705904
0.705387
0.704909
0.704469
0.704062
0.703686
0.703339
0.703018
0.702722
0.702448
0.702195
0.701961
0.701744
0.701544
0.701359
0.701188
0.701029
0.700883
0.700747
0.700622
0.700506
0.700399
0.7003
0.700208
0.700123
0.700045
0.699972
0.699905
0.699843
0.699785
0.699732
0.699683
0.699637
0.699595
0.699556
0.69952
0.699486
0.699456
0.699427
0.6994
0.699376
0.699353
0.699332
0.699313
0.699295
0.699278
0.699262
0.699248
0.699235
0.699222
0.699211
0.6992
0.69919
0.699181
0.699172
0.699165
0.699158
0.699151
0.699145
0.699139
0.699134
0.699129
0.699125
0.699121
0.699116
0.699112
1.31206
0.970558
0.825687
0.803971
0.792708
0.77484
0.763126
0.753763
0.745664
0.738919
0.733156
0.72816
0.7238
0.719963
0.716562
0.713531
0.710816
0.708374
0.706169
0.704172
0.702359
0.700709
0.699203
0.697828
0.696569
0.695416
0.694358
0.693386
0.692493
0.691671
0.690915
0.690218
0.689577
0.688985
0.688439
0.687935
0.68747
0.687041
0.686645
0.686279
0.685941
0.685628
0.68534
0.685073
0.684826
0.684598
0.684387
0.684192
0.684012
0.683845
0.683691
0.683548
0.683416
0.683294
0.683181
0.683077
0.68298
0.682891
0.682808
0.682732
0.682661
0.682596
0.682535
0.682479
0.682427
0.682379
0.682335
0.682294
0.682256
0.68222
0.682188
0.682158
0.68213
0.682104
0.68208
0.682058
0.682038
0.682019
0.682001
0.681985
0.68197
0.681956
0.681943
0.68193
0.681919
0.681909
0.681899
0.68189
0.681882
0.681874
0.681867
0.681861
0.681855
0.681849
0.681844
0.68184
0.681835
0.681831
0.681827
0.681823
1.27403
0.941674
0.801009
0.780026
0.769096
0.751779
0.740433
0.731361
0.723512
0.716976
0.71139
0.706548
0.702322
0.698603
0.695307
0.692369
0.689738
0.687371
0.685234
0.683299
0.681542
0.679942
0.678483
0.67715
0.67593
0.674813
0.673787
0.672846
0.67198
0.671184
0.670451
0.669776
0.669153
0.66858
0.668051
0.667563
0.667112
0.666696
0.666312
0.665957
0.66563
0.665327
0.665047
0.664788
0.664549
0.664328
0.664124
0.663935
0.66376
0.663599
0.663449
0.663311
0.663183
0.663065
0.662955
0.662854
0.66276
0.662674
0.662594
0.66252
0.662451
0.662388
0.662329
0.662275
0.662224
0.662178
0.662135
0.662095
0.662058
0.662024
0.661992
0.661963
0.661936
0.661911
0.661888
0.661867
0.661847
0.661828
0.661811
0.661796
0.661781
0.661767
0.661755
0.661743
0.661732
0.661722
0.661713
0.661704
0.661696
0.661689
0.661682
0.661676
0.66167
0.661664
0.66166
0.661655
0.661651
0.661647
0.661643
0.661639
1.23177
0.909557
0.773425
0.753263
0.742754
0.726058
0.715118
0.706364
0.69879
0.692482
0.687092
0.682418
0.678341
0.674751
0.67157
0.668735
0.666195
0.663911
0.661849
0.659981
0.658285
0.656741
0.655333
0.654047
0.652869
0.65179
0.650801
0.649892
0.649057
0.648288
0.647581
0.646929
0.646329
0.645775
0.645264
0.644793
0.644359
0.643957
0.643586
0.643244
0.642928
0.642635
0.642365
0.642116
0.641885
0.641672
0.641474
0.641292
0.641123
0.640967
0.640823
0.640689
0.640566
0.640452
0.640347
0.640249
0.640158
0.640075
0.639998
0.639926
0.63986
0.639799
0.639742
0.63969
0.639641
0.639596
0.639555
0.639516
0.639481
0.639448
0.639417
0.639389
0.639363
0.639339
0.639316
0.639296
0.639277
0.639259
0.639242
0.639227
0.639213
0.6392
0.639188
0.639176
0.639166
0.639156
0.639147
0.639139
0.639131
0.639124
0.639117
0.639111
0.639106
0.639101
0.639096
0.639091
0.639087
0.639084
0.63908
0.639076
1.23177
0.909557
0.773425
0.753263
0.742754
0.726058
0.715118
0.706364
0.69879
0.692482
0.687092
0.682418
0.678341
0.674751
0.67157
0.668735
0.666195
0.663911
0.661849
0.659981
0.658285
0.656741
0.655333
0.654047
0.652869
0.65179
0.650801
0.649892
0.649057
0.648288
0.647581
0.646929
0.646329
0.645775
0.645264
0.644793
0.644359
0.643957
0.643586
0.643244
0.642928
0.642635
0.642365
0.642116
0.641885
0.641672
0.641474
0.641292
0.641123
0.640967
0.640823
0.640689
0.640566
0.640452
0.640347
0.640249
0.640159
0.640075
0.639998
0.639926
0.63986
0.639799
0.639742
0.63969
0.639641
0.639596
0.639555
0.639516
0.639481
0.639448
0.639417
0.639389
0.639363
0.639339
0.639316
0.639296
0.639277
0.639259
0.639242
0.639227
0.639213
0.6392
0.639188
0.639176
0.639166
0.639156
0.639147
0.639139
0.639131
0.639124
0.639117
0.639111
0.639106
0.639101
0.639096
0.639091
0.639087
0.639083
0.639079
0.639076
1.27403
0.941674
0.801009
0.780026
0.769096
0.751779
0.740433
0.731361
0.723512
0.716976
0.71139
0.706548
0.702322
0.698603
0.695307
0.692369
0.689738
0.687371
0.685234
0.683299
0.681542
0.679942
0.678483
0.67715
0.67593
0.674813
0.673787
0.672846
0.67198
0.671184
0.670451
0.669776
0.669153
0.66858
0.668051
0.667563
0.667112
0.666696
0.666312
0.665957
0.66563
0.665327
0.665047
0.664788
0.664549
0.664328
0.664124
0.663935
0.66376
0.663599
0.663449
0.663311
0.663183
0.663065
0.662955
0.662854
0.66276
0.662674
0.662594
0.66252
0.662451
0.662388
0.662329
0.662275
0.662224
0.662178
0.662135
0.662095
0.662058
0.662024
0.661992
0.661963
0.661936
0.661911
0.661888
0.661867
0.661847
0.661828
0.661811
0.661796
0.661781
0.661767
0.661755
0.661743
0.661732
0.661722
0.661713
0.661704
0.661696
0.661689
0.661682
0.661676
0.66167
0.661664
0.661659
0.661655
0.66165
0.661646
0.661643
0.661639
1.31206
0.970558
0.825687
0.803971
0.792708
0.77484
0.763126
0.753763
0.745664
0.738919
0.733156
0.72816
0.7238
0.719963
0.716562
0.713531
0.710816
0.708374
0.706169
0.704172
0.702359
0.700709
0.699203
0.697828
0.696569
0.695416
0.694358
0.693386
0.692493
0.691671
0.690915
0.690218
0.689577
0.688985
0.688439
0.687935
0.68747
0.687041
0.686645
0.686279
0.685941
0.685628
0.68534
0.685073
0.684826
0.684598
0.684387
0.684192
0.684012
0.683845
0.683691
0.683548
0.683416
0.683294
0.683181
0.683077
0.68298
0.682891
0.682808
0.682732
0.682661
0.682596
0.682535
0.682479
0.682427
0.682379
0.682335
0.682294
0.682256
0.68222
0.682188
0.682158
0.68213
0.682104
0.68208
0.682058
0.682038
0.682019
0.682001
0.681985
0.68197
0.681956
0.681943
0.681931
0.681919
0.681909
0.681899
0.68189
0.681882
0.681874
0.681867
0.681861
0.681855
0.681849
0.681844
0.681839
0.681835
0.681831
0.681827
0.681823
1.34452
0.995296
0.846836
0.824468
0.812931
0.794597
0.78257
0.77296
0.764647
0.757723
0.751808
0.746679
0.742204
0.738265
0.734774
0.731662
0.728875
0.726368
0.724105
0.722055
0.720194
0.7185
0.716954
0.715543
0.71425
0.713066
0.71198
0.710983
0.710066
0.709222
0.708446
0.707731
0.707072
0.706464
0.705904
0.705387
0.704909
0.704469
0.704062
0.703686
0.703339
0.703018
0.702722
0.702448
0.702195
0.701961
0.701744
0.701544
0.701359
0.701188
0.701029
0.700883
0.700747
0.700622
0.700506
0.700399
0.7003
0.700208
0.700123
0.700045
0.699972
0.699905
0.699843
0.699785
0.699732
0.699683
0.699637
0.699595
0.699556
0.69952
0.699486
0.699456
0.699427
0.6994
0.699376
0.699353
0.699332
0.699313
0.699295
0.699278
0.699262
0.699248
0.699235
0.699222
0.699211
0.6992
0.69919
0.699181
0.699173
0.699165
0.699157
0.699151
0.699145
0.699139
0.699134
0.699129
0.699124
0.69912
0.699116
0.699112
1.3706
1.01524
0.863902
0.840986
0.829227
0.810519
0.798241
0.788434
0.779949
0.772882
0.766844
0.761609
0.757041
0.753021
0.749457
0.74628
0.743435
0.740876
0.738566
0.736473
0.734573
0.732843
0.731266
0.729824
0.728505
0.727296
0.726187
0.725169
0.724233
0.723372
0.722579
0.721849
0.721176
0.720556
0.719984
0.719456
0.718969
0.718519
0.718103
0.71772
0.717365
0.717038
0.716735
0.716456
0.716197
0.715958
0.715737
0.715533
0.715344
0.715169
0.715007
0.714858
0.714719
0.714592
0.714473
0.714364
0.714263
0.714169
0.714082
0.714002
0.713928
0.71386
0.713796
0.713737
0.713683
0.713633
0.713586
0.713543
0.713503
0.713466
0.713432
0.713401
0.713371
0.713344
0.713319
0.713296
0.713275
0.713255
0.713236
0.713219
0.713203
0.713189
0.713175
0.713162
0.713151
0.71314
0.71313
0.71312
0.713112
0.713104
0.713096
0.713089
0.713083
0.713077
0.713072
0.713067
0.713063
0.713058
0.713054
0.71305
1.38968
1.02987
0.876424
0.853099
0.841176
0.822192
0.80973
0.799779
0.791169
0.783998
0.77787
0.772558
0.767922
0.763841
0.760225
0.757001
0.754113
0.751516
0.749171
0.747047
0.745118
0.743362
0.741761
0.740298
0.738959
0.737732
0.736607
0.735573
0.734623
0.733749
0.732944
0.732203
0.73152
0.73089
0.73031
0.729774
0.729279
0.728823
0.728401
0.728012
0.727652
0.72732
0.727012
0.726728
0.726466
0.726223
0.725999
0.725792
0.7256
0.725423
0.725259
0.725106
0.724966
0.724837
0.724717
0.724605
0.724503
0.724408
0.72432
0.724238
0.724163
0.724093
0.724029
0.723969
0.723914
0.723863
0.723816
0.723772
0.723732
0.723694
0.72366
0.723628
0.723598
0.72357
0.723545
0.723522
0.7235
0.72348
0.723461
0.723444
0.723428
0.723413
0.723399
0.723386
0.723374
0.723363
0.723353
0.723343
0.723334
0.723326
0.723319
0.723312
0.723306
0.7233
0.723294
0.723289
0.723285
0.72328
0.723276
0.723272
1.4013
1.03879
0.884071
0.860493
0.848471
0.829316
0.816743
0.806704
0.798017
0.790783
0.784601
0.779241
0.774564
0.770447
0.766798
0.763545
0.760632
0.758011
0.755645
0.753502
0.751556
0.749784
0.748169
0.746692
0.745341
0.744103
0.742968
0.741924
0.740966
0.740084
0.739272
0.738524
0.737835
0.7372
0.736614
0.736073
0.735574
0.735113
0.734688
0.734295
0.733932
0.733597
0.733287
0.733
0.732735
0.73249
0.732264
0.732055
0.731861
0.731683
0.731517
0.731363
0.731222
0.731091
0.73097
0.730858
0.730754
0.730658
0.73057
0.730488
0.730412
0.730341
0.730276
0.730216
0.73016
0.730109
0.730061
0.730017
0.729976
0.729939
0.729904
0.729871
0.729841
0.729814
0.729788
0.729764
0.729743
0.729722
0.729703
0.729686
0.729669
0.729654
0.72964
0.729627
0.729615
0.729604
0.729594
0.729584
0.729575
0.729567
0.72956
0.729553
0.729546
0.72954
0.729535
0.72953
0.729525
0.729521
0.729517
0.729512
1.4052
1.04179
0.886643
0.862979
0.850923
0.831712
0.8191
0.809032
0.80032
0.793064
0.786863
0.781488
0.776797
0.772668
0.769008
0.765745
0.762823
0.760195
0.757821
0.755672
0.75372
0.751943
0.750323
0.748842
0.747487
0.746245
0.745106
0.74406
0.743098
0.742214
0.741399
0.740649
0.739958
0.739321
0.738733
0.738191
0.73769
0.737228
0.736802
0.736408
0.736043
0.735707
0.735396
0.735109
0.734843
0.734598
0.734371
0.734161
0.733967
0.733787
0.733621
0.733467
0.733325
0.733194
0.733073
0.73296
0.732856
0.73276
0.732671
0.732589
0.732512
0.732442
0.732377
0.732316
0.732261
0.732209
0.732161
0.732117
0.732076
0.732038
0.732003
0.73197
0.73194
0.731913
0.731887
0.731863
0.731841
0.731821
0.731802
0.731784
0.731768
0.731753
0.731739
0.731726
0.731714
0.731703
0.731692
0.731683
0.731674
0.731665
0.731658
0.731651
0.731645
0.731639
0.731633
0.731628
0.731623
0.731619
0.731615
0.73161
1.4013
1.03879
0.884071
0.860493
0.848471
0.829316
0.816743
0.806704
0.798017
0.790783
0.784601
0.779241
0.774564
0.770447
0.766798
0.763545
0.760632
0.758011
0.755645
0.753502
0.751556
0.749784
0.748169
0.746692
0.745341
0.744103
0.742968
0.741924
0.740966
0.740084
0.739272
0.738524
0.737835
0.7372
0.736614
0.736073
0.735574
0.735113
0.734688
0.734295
0.733932
0.733597
0.733287
0.733
0.732735
0.73249
0.732264
0.732055
0.731861
0.731683
0.731517
0.731363
0.731222
0.731091
0.73097
0.730858
0.730754
0.730658
0.73057
0.730488
0.730412
0.730341
0.730276
0.730216
0.73016
0.730109
0.730061
0.730017
0.729976
0.729939
0.729904
0.729871
0.729841
0.729814
0.729788
0.729764
0.729743
0.729722
0.729703
0.729686
0.729669
0.729654
0.72964
0.729627
0.729615
0.729604
0.729594
0.729584
0.729575
0.729567
0.72956
0.729553
0.729546
0.72954
0.729535
0.72953
0.729525
0.729521
0.729517
0.729512
1.38968
1.02987
0.876424
0.853099
0.841176
0.822192
0.80973
0.799779
0.791169
0.783998
0.77787
0.772558
0.767922
0.763841
0.760225
0.757001
0.754113
0.751516
0.749171
0.747047
0.745118
0.743362
0.741761
0.740298
0.738959
0.737732
0.736607
0.735573
0.734623
0.733749
0.732944
0.732203
0.73152
0.73089
0.73031
0.729774
0.729279
0.728823
0.728401
0.728012
0.727652
0.72732
0.727012
0.726728
0.726466
0.726223
0.725999
0.725792
0.7256
0.725423
0.725259
0.725106
0.724966
0.724837
0.724717
0.724605
0.724503
0.724408
0.72432
0.724238
0.724163
0.724093
0.724029
0.723969
0.723914
0.723863
0.723816
0.723772
0.723732
0.723694
0.72366
0.723628
0.723598
0.72357
0.723545
0.723522
0.7235
0.72348
0.723461
0.723444
0.723427
0.723413
0.723399
0.723386
0.723374
0.723363
0.723353
0.723343
0.723334
0.723326
0.723319
0.723312
0.723306
0.7233
0.723294
0.723289
0.723285
0.72328
0.723276
0.723272
1.3706
1.01524
0.863902
0.840986
0.829227
0.810519
0.798241
0.788434
0.779949
0.772882
0.766844
0.761609
0.757041
0.753021
0.749457
0.74628
0.743435
0.740876
0.738566
0.736473
0.734573
0.732843
0.731266
0.729824
0.728505
0.727296
0.726187
0.725169
0.724233
0.723372
0.722579
0.721849
0.721176
0.720556
0.719984
0.719456
0.718969
0.718519
0.718103
0.71772
0.717365
0.717038
0.716735
0.716456
0.716197
0.715958
0.715737
0.715533
0.715344
0.715169
0.715007
0.714858
0.714719
0.714592
0.714473
0.714364
0.714263
0.714169
0.714082
0.714002
0.713928
0.71386
0.713796
0.713737
0.713683
0.713633
0.713586
0.713543
0.713503
0.713466
0.713432
0.713401
0.713371
0.713344
0.713319
0.713296
0.713275
0.713255
0.713236
0.713219
0.713203
0.713189
0.713175
0.713162
0.713151
0.71314
0.71313
0.71312
0.713112
0.713104
0.713096
0.71309
0.713083
0.713078
0.713072
0.713067
0.713063
0.713059
0.713055
0.713051
1.34452
0.995296
0.846836
0.824468
0.812931
0.794597
0.78257
0.77296
0.764647
0.757723
0.751808
0.746679
0.742204
0.738265
0.734774
0.731662
0.728875
0.726368
0.724105
0.722055
0.720194
0.7185
0.716954
0.715543
0.71425
0.713066
0.71198
0.710983
0.710066
0.709222
0.708446
0.707731
0.707072
0.706464
0.705904
0.705387
0.704909
0.704469
0.704062
0.703686
0.703339
0.703018
0.702722
0.702448
0.702195
0.701961
0.701744
0.701544
0.701359
0.701188
0.701029
0.700883
0.700747
0.700622
0.700506
0.700399
0.7003
0.700208
0.700123
0.700045
0.699972
0.699905
0.699843
0.699785
0.699732
0.699683
0.699637
0.699595
0.699556
0.69952
0.699486
0.699456
0.699427
0.6994
0.699376
0.699353
0.699332
0.699313
0.699295
0.699278
0.699262
0.699248
0.699235
0.699222
0.699211
0.6992
0.69919
0.699181
0.699173
0.699165
0.699158
0.699151
0.699145
0.699139
0.699134
0.699129
0.699125
0.699121
0.699117
0.699113
1.31206
0.970558
0.825687
0.803971
0.792708
0.77484
0.763126
0.753763
0.745664
0.738919
0.733156
0.72816
0.7238
0.719963
0.716562
0.713531
0.710816
0.708374
0.706169
0.704172
0.702359
0.700709
0.699203
0.697828
0.696569
0.695416
0.694358
0.693386
0.692493
0.691671
0.690915
0.690218
0.689577
0.688985
0.688439
0.687935
0.68747
0.687041
0.686645
0.686279
0.685941
0.685628
0.68534
0.685073
0.684826
0.684598
0.684387
0.684192
0.684012
0.683845
0.683691
0.683548
0.683416
0.683294
0.683181
0.683077
0.68298
0.682891
0.682808
0.682732
0.682661
0.682596
0.682535
0.682479
0.682427
0.682379
0.682335
0.682294
0.682256
0.68222
0.682188
0.682158
0.68213
0.682104
0.68208
0.682058
0.682038
0.682019
0.682001
0.681985
0.68197
0.681956
0.681943
0.68193
0.681919
0.681909
0.681899
0.68189
0.681882
0.681874
0.681867
0.681861
0.681855
0.68185
0.681845
0.68184
0.681836
0.681832
0.681828
0.681824
1.27403
0.941674
0.801009
0.780026
0.769096
0.751779
0.740433
0.731361
0.723512
0.716976
0.71139
0.706548
0.702322
0.698603
0.695307
0.692369
0.689738
0.687371
0.685234
0.683299
0.681542
0.679942
0.678483
0.67715
0.67593
0.674813
0.673787
0.672846
0.67198
0.671184
0.670451
0.669776
0.669153
0.66858
0.668051
0.667563
0.667112
0.666696
0.666312
0.665957
0.66563
0.665327
0.665047
0.664788
0.664549
0.664328
0.664124
0.663935
0.66376
0.663599
0.663449
0.663311
0.663183
0.663065
0.662955
0.662854
0.66276
0.662674
0.662594
0.66252
0.662451
0.662388
0.662329
0.662275
0.662224
0.662178
0.662135
0.662095
0.662058
0.662024
0.661992
0.661963
0.661936
0.661911
0.661888
0.661867
0.661847
0.661828
0.661811
0.661796
0.661781
0.661767
0.661755
0.661743
0.661732
0.661722
0.661713
0.661704
0.661696
0.661689
0.661682
0.661676
0.66167
0.661665
0.66166
0.661655
0.661651
0.661647
0.661644
0.66164
1.23177
0.909557
0.773425
0.753263
0.742754
0.726058
0.715118
0.706364
0.69879
0.692482
0.687092
0.682418
0.678341
0.674751
0.67157
0.668735
0.666195
0.663911
0.661849
0.659981
0.658285
0.656741
0.655333
0.654047
0.652869
0.65179
0.650801
0.649892
0.649057
0.648288
0.647581
0.646929
0.646329
0.645775
0.645264
0.644793
0.644359
0.643957
0.643586
0.643244
0.642928
0.642635
0.642365
0.642116
0.641885
0.641672
0.641474
0.641292
0.641123
0.640967
0.640823
0.640689
0.640566
0.640452
0.640347
0.640249
0.640159
0.640075
0.639998
0.639926
0.63986
0.639799
0.639742
0.63969
0.639641
0.639596
0.639555
0.639516
0.639481
0.639448
0.639417
0.639389
0.639363
0.639339
0.639316
0.639296
0.639277
0.639259
0.639242
0.639227
0.639213
0.6392
0.639188
0.639176
0.639166
0.639156
0.639147
0.639139
0.639131
0.639124
0.639118
0.639112
0.639106
0.639101
0.639096
0.639092
0.639088
0.639084
0.639081
0.639077
1.23177
0.909557
0.773425
0.753263
0.742754
0.726058
0.715118
0.706364
0.69879
0.692482
0.687092
0.682418
0.678341
0.674751
0.67157
0.668735
0.666195
0.663911
0.661849
0.659981
0.658285
0.656741
0.655333
0.654047
0.652869
0.65179
0.650801
0.649892
0.649057
0.648288
0.647581
0.646929
0.646329
0.645775
0.645264
0.644793
0.644359
0.643957
0.643586
0.643244
0.642928
0.642635
0.642365
0.642116
0.641885
0.641672
0.641474
0.641292
0.641123
0.640967
0.640823
0.640689
0.640566
0.640452
0.640347
0.640249
0.640159
0.640075
0.639998
0.639926
0.63986
0.639799
0.639742
0.63969
0.639641
0.639596
0.639555
0.639516
0.639481
0.639448
0.639417
0.639389
0.639363
0.639339
0.639316
0.639296
0.639277
0.639259
0.639242
0.639227
0.639213
0.6392
0.639188
0.639176
0.639166
0.639156
0.639147
0.639139
0.639131
0.639124
0.639117
0.639111
0.639106
0.6391
0.639095
0.639091
0.639086
0.639082
0.639078
0.639074
1.27403
0.941674
0.801009
0.780026
0.769096
0.751779
0.740433
0.731361
0.723512
0.716976
0.71139
0.706548
0.702322
0.698603
0.695307
0.692369
0.689738
0.687371
0.685234
0.683299
0.681542
0.679942
0.678483
0.67715
0.67593
0.674813
0.673787
0.672846
0.67198
0.671184
0.670451
0.669776
0.669153
0.66858
0.668051
0.667563
0.667112
0.666696
0.666312
0.665957
0.66563
0.665327
0.665047
0.664788
0.664549
0.664328
0.664124
0.663935
0.66376
0.663599
0.663449
0.663311
0.663183
0.663065
0.662955
0.662854
0.66276
0.662674
0.662594
0.66252
0.662451
0.662388
0.662329
0.662275
0.662224
0.662178
0.662135
0.662095
0.662058
0.662024
0.661992
0.661963
0.661936
0.661911
0.661888
0.661867
0.661847
0.661828
0.661811
0.661796
0.661781
0.661767
0.661755
0.661743
0.661732
0.661722
0.661713
0.661704
0.661696
0.661688
0.661682
0.661675
0.66167
0.661664
0.661659
0.661654
0.66165
0.661645
0.661641
0.661637
1.31206
0.970558
0.825687
0.803971
0.792708
0.77484
0.763126
0.753763
0.745664
0.738919
0.733156
0.72816
0.7238
0.719963
0.716562
0.713531
0.710816
0.708374
0.706169
0.704172
0.702359
0.700709
0.699203
0.697828
0.696569
0.695416
0.694358
0.693386
0.692493
0.691671
0.690915
0.690219
0.689577
0.688985
0.688439
0.687935
0.68747
0.687041
0.686645
0.686279
0.685941
0.685628
0.68534
0.685073
0.684826
0.684598
0.684387
0.684192
0.684012
0.683845
0.683691
0.683548
0.683416
0.683294
0.683181
0.683077
0.68298
0.682891
0.682808
0.682732
0.682661
0.682596
0.682535
0.682479
0.682427
0.682379
0.682335
0.682294
0.682256
0.68222