# Solver information
# Time        	U_solver      	Ux_initial    	Ux_final      	Ux_iters      	Uy_initial    	Uy_final      	Uy_iters      	Uz_initial    	Uz_final      	Uz_iters      	U_converged   
1             	smoothSolver	1.938290e-01	1.655880e-02	1	1.934780e-01	1.612290e-02	1	1.000000e+00	2.169120e-02	2	false
2             	smoothSolver	5.741470e-01	4.484930e-02	2	5.741870e-01	4.485680e-02	2	2.348670e-01	1.064760e-02	2	false
3             	smoothSolver	3.411740e-01	2.613730e-02	2	3.411160e-01	2.613620e-02	2	1.574600e-01	1.021420e-02	2	false
4             	smoothSolver	1.726610e-01	1.290350e-02	2	1.728190e-01	1.291770e-02	2	9.396740e-02	6.284790e-03	2	false
5             	smoothSolver	6.148010e-02	4.407020e-03	2	6.161590e-02	4.419970e-03	2	4.879470e-02	2.921190e-03	2	false
6             	smoothSolver	2.517690e-02	1.665210e-03	2	2.515600e-02	1.664020e-03	2	4.051180e-02	2.593000e-03	2	false
7             	smoothSolver	2.664850e-02	1.703550e-03	2	2.687670e-02	1.724440e-03	2	2.889680e-02	1.930980e-03	2	false
8             	smoothSolver	3.925560e-02	3.012950e-03	2	3.939650e-02	3.025990e-03	2	2.495160e-02	1.852450e-03	2	false
9             	smoothSolver	5.107480e-02	4.122620e-03	2	5.107130e-02	4.122260e-03	2	2.587200e-02	2.092660e-03	2	false
10            	smoothSolver	4.251270e-02	3.389310e-03	2	4.267490e-02	3.403290e-03	2	2.132780e-02	1.645500e-03	2	false
11            	smoothSolver	2.470300e-02	1.907010e-03	2	2.479390e-02	1.915290e-03	2	1.817090e-02	1.294550e-03	2	false
12            	smoothSolver	1.611340e-02	1.192830e-03	2	1.612610e-02	1.194020e-03	2	1.697900e-02	1.213400e-03	2	false
13            	smoothSolver	1.745740e-02	1.292140e-03	2	1.758690e-02	1.303140e-03	2	1.443410e-02	1.059610e-03	2	false
14            	smoothSolver	1.983510e-02	1.512570e-03	2	1.988660e-02	1.517440e-03	2	1.240270e-02	9.633770e-04	2	false
15            	smoothSolver	2.049450e-02	1.615980e-03	2	2.050740e-02	1.617110e-03	2	1.156880e-02	9.250360e-04	2	false
16            	smoothSolver	1.859120e-02	1.487660e-03	2	1.867520e-02	1.494750e-03	2	1.088330e-02	8.484940e-04	2	false
17            	smoothSolver	1.433090e-02	1.139520e-03	2	1.435540e-02	1.142180e-03	2	1.052690e-02	7.942420e-04	2	false
18            	smoothSolver	1.202140e-02	9.514390e-04	2	1.203160e-02	9.524980e-04	2	1.003680e-02	7.567900e-04	2	false
19            	smoothSolver	1.200240e-02	9.508950e-04	2	1.206010e-02	9.556600e-04	2	9.035590e-03	6.944890e-04	2	false
20            	smoothSolver	1.186450e-02	9.394190e-04	2	1.187920e-02	9.408450e-04	2	8.127450e-03	6.388300e-04	2	false
21            	smoothSolver	1.131450e-02	9.157860e-04	2	1.132380e-02	9.166270e-04	2	7.585550e-03	6.019960e-04	2	false
22            	smoothSolver	1.050540e-02	8.650430e-04	2	1.054230e-02	8.680340e-04	2	7.294840e-03	5.733040e-04	2	false
23            	smoothSolver	9.250140e-03	7.599490e-04	2	9.256540e-03	7.605120e-04	2	7.113530e-03	5.527270e-04	2	false
24            	smoothSolver	8.573020e-03	7.001790e-04	2	8.579740e-03	7.007860e-04	2	6.807400e-03	5.283530e-04	2	false
25            	smoothSolver	8.341370e-03	6.778770e-04	2	8.365630e-03	6.798530e-04	2	6.346650e-03	4.969600e-04	2	false
26            	smoothSolver	7.954160e-03	6.463520e-04	2	7.958380e-03	6.467280e-04	2	5.899160e-03	4.665650e-04	2	false
27            	smoothSolver	7.561590e-03	6.218340e-04	2	7.567470e-03	6.223150e-04	2	5.584640e-03	4.431610e-04	2	false
28            	smoothSolver	7.175730e-03	5.938100e-04	2	7.191750e-03	5.951440e-04	2	5.384190e-03	4.259080e-04	2	false
29            	smoothSolver	6.716280e-03	5.548540e-04	2	6.717260e-03	5.549690e-04	2	5.206220e-03	4.103940e-04	2	false
30            	smoothSolver	6.448960e-03	5.308950e-04	2	6.452780e-03	5.311850e-04	2	4.986930e-03	3.932870e-04	2	false
31            	smoothSolver	6.229930e-03	5.108970e-04	2	6.238980e-03	5.115820e-04	2	4.733020e-03	3.748240e-04	2	false
32            	smoothSolver	5.949510e-03	4.885290e-04	2	5.951070e-03	4.886400e-04	2	4.492450e-03	3.572760e-04	2	false
33            	smoothSolver	5.685440e-03	4.709420e-04	2	5.688230e-03	4.711640e-04	2	4.295390e-03	3.421810e-04	2	false
34            	smoothSolver	5.442240e-03	4.527760e-04	2	5.448230e-03	4.532460e-04	2	4.139480e-03	3.293250e-04	2	false
35            	smoothSolver	5.213760e-03	4.336670e-04	2	5.213430e-03	4.336290e-04	2	3.997140e-03	3.176140e-04	2	false
36            	smoothSolver	5.033900e-03	4.187210e-04	2	5.035370e-03	4.188190e-04	2	3.845830e-03	3.057780e-04	2	false
37            	smoothSolver	4.840410e-03	4.022650e-04	2	4.843190e-03	4.024510e-04	2	3.686850e-03	2.936810e-04	2	false
38            	smoothSolver	4.641880e-03	3.852170e-04	2	4.641500e-03	3.851450e-04	2	3.535160e-03	2.820940e-04	2	false
39            	smoothSolver	4.465590e-03	3.702790e-04	2	4.466420e-03	3.703240e-04	2	3.402170e-03	2.716670e-04	2	false
40            	smoothSolver	4.292400e-03	3.568260e-04	2	4.293550e-03	3.569020e-04	2	3.285540e-03	2.623500e-04	2	false
41            	smoothSolver	4.130320e-03	3.443810e-04	2	4.129860e-03	3.443190e-04	2	3.174850e-03	2.534950e-04	2	false
42            	smoothSolver	3.987950e-03	3.326360e-04	2	3.988170e-03	3.326300e-04	2	3.063420e-03	2.447340e-04	2	false
43            	smoothSolver	3.843710e-03	3.206060e-04	2	3.843960e-03	3.205940e-04	2	2.952040e-03	2.360600e-04	2	false
44            	smoothSolver	3.706050e-03	3.089820e-04	2	3.705590e-03	3.089140e-04	2	2.845760e-03	2.277730e-04	2	false
45            	smoothSolver	3.584480e-03	2.987900e-04	2	3.584540e-03	2.987680e-04	2	2.747610e-03	2.200440e-04	2	false
46            	smoothSolver	3.460490e-03	2.883870e-04	2	3.460510e-03	2.883620e-04	2	2.656490e-03	2.128120e-04	2	false
47            	smoothSolver	3.341650e-03	2.783840e-04	2	3.341300e-03	2.783310e-04	2	2.569320e-03	2.058940e-04	2	false
48            	smoothSolver	3.237690e-03	2.696310e-04	2	3.237570e-03	2.695960e-04	2	2.484180e-03	1.991720e-04	2	false
49            	smoothSolver	3.141500e-03	2.615800e-04	2	3.141380e-03	2.615420e-04	2	2.401430e-03	1.926620e-04	2	false
50            	smoothSolver	3.044150e-03	2.536700e-04	2	3.043760e-03	2.536060e-04	2	2.322340e-03	1.864310e-04	2	false
51            	smoothSolver	2.947970e-03	2.457660e-04	2	2.947660e-03	2.457110e-04	2	2.247550e-03	1.805160e-04	2	false
52            	smoothSolver	2.852470e-03	2.378750e-04	2	2.852200e-03	2.378270e-04	2	2.176570e-03	1.748840e-04	2	false
53            	smoothSolver	2.762330e-03	2.304270e-04	2	2.762060e-03	2.303800e-04	2	2.108430e-03	1.694760e-04	2	false
54            	smoothSolver	2.678360e-03	2.234990e-04	2	2.678070e-03	2.234550e-04	2	2.042560e-03	1.642570e-04	2	false
55            	smoothSolver	2.607610e-03	2.173040e-04	2	2.607200e-03	2.172500e-04	2	1.979130e-03	1.592320e-04	2	false
56            	smoothSolver	2.550580e-03	2.120090e-04	2	2.550230e-03	2.119590e-04	2	1.918500e-03	1.544190e-04	2	false
57            	smoothSolver	2.503310e-03	2.075160e-04	2	2.503110e-03	2.074780e-04	2	1.860580e-03	1.498130e-04	2	false
58            	smoothSolver	2.461010e-03	2.034820e-04	2	2.460830e-03	2.034520e-04	2	1.805040e-03	1.453920e-04	2	false
59            	smoothSolver	2.421330e-03	1.996310e-04	2	2.421050e-03	1.995890e-04	2	1.751540e-03	1.411320e-04	2	false
60            	smoothSolver	2.381460e-03	1.958560e-04	2	2.381150e-03	1.958170e-04	2	1.699780e-03	1.370150e-04	2	false
61            	smoothSolver	2.340400e-03	1.921220e-04	2	2.340090e-03	1.920840e-04	2	1.649810e-03	1.330410e-04	2	false
62            	smoothSolver	2.295430e-03	1.882950e-04	2	2.295120e-03	1.882570e-04	2	1.601680e-03	1.292110e-04	2	false
63            	smoothSolver	2.247950e-03	1.842680e-04	2	2.247720e-03	1.842370e-04	2	1.555320e-03	1.255210e-04	2	false
64            	smoothSolver	2.200700e-03	1.801150e-04	2	2.200480e-03	1.800850e-04	2	1.510650e-03	1.219640e-04	2	false
65            	smoothSolver	2.150670e-03	1.759320e-04	2	2.150430e-03	1.758990e-04	2	1.467520e-03	1.185310e-04	2	false
66            	smoothSolver	2.097510e-03	1.717250e-04	2	2.097260e-03	1.716950e-04	2	1.425840e-03	1.152140e-04	2	false
67            	smoothSolver	2.044580e-03	1.674790e-04	2	2.044340e-03	1.674480e-04	2	1.385580e-03	1.120100e-04	2	false
68            	smoothSolver	1.994640e-03	1.632250e-04	2	1.994370e-03	1.631930e-04	2	1.346730e-03	1.089140e-04	2	false
69            	smoothSolver	1.944770e-03	1.589860e-04	2	1.944540e-03	1.589570e-04	2	1.309220e-03	1.059240e-04	2	false
70            	smoothSolver	1.894690e-03	1.548090e-04	2	1.894540e-03	1.547870e-04	2	1.272950e-03	1.030320e-04	2	false
71            	smoothSolver	1.844300e-03	1.506470e-04	2	1.844120e-03	1.506210e-04	2	1.237860e-03	1.002340e-04	2	false
72            	smoothSolver	1.794280e-03	1.465730e-04	2	1.794010e-03	1.465400e-04	2	1.203930e-03	9.752740e-05	2	false
73            	smoothSolver	1.744690e-03	1.425650e-04	2	1.744430e-03	1.425320e-04	2	1.171100e-03	9.490780e-05	2	false
74            	smoothSolver	1.695110e-03	1.386420e-04	2	1.694890e-03	1.386100e-04	2	1.139350e-03	9.237330e-05	2	false
75            	smoothSolver	1.646360e-03	1.350550e-04	2	1.646190e-03	1.350280e-04	2	1.108620e-03	8.992020e-05	2	false
76            	smoothSolver	1.598590e-03	1.317270e-04	2	1.598430e-03	1.317000e-04	2	1.078870e-03	8.754640e-05	2	false
77            	smoothSolver	1.552560e-03	1.284630e-04	2	1.552370e-03	1.284330e-04	2	1.050070e-03	8.524830e-05	2	false
78            	smoothSolver	1.510470e-03	1.252610e-04	2	1.510240e-03	1.252230e-04	2	1.022180e-03	8.302490e-05	2	false
79            	smoothSolver	1.472810e-03	1.221730e-04	2	1.472590e-03	1.221380e-04	2	9.952010e-04	8.087530e-05	2	false
80            	smoothSolver	1.437090e-03	1.192180e-04	2	1.436930e-03	1.191900e-04	2	9.690970e-04	7.879850e-05	2	false
81            	smoothSolver	1.402440e-03	1.163040e-04	2	1.402300e-03	1.162790e-04	2	9.438090e-04	7.680360e-05	2	false
82            	smoothSolver	1.368330e-03	1.133740e-04	2	1.368190e-03	1.133470e-04	2	9.193190e-04	7.489010e-05	2	false
83            	smoothSolver	1.334450e-03	1.104520e-04	2	1.334240e-03	1.104220e-04	2	8.955980e-04	7.304920e-05	2	false
84            	smoothSolver	1.300740e-03	1.075840e-04	2	1.300540e-03	1.075540e-04	2	8.726490e-04	7.126560e-05	2	false
85            	smoothSolver	1.267460e-03	1.047340e-04	2	1.267340e-03	1.047090e-04	2	8.504780e-04	6.953700e-05	2	false
86            	smoothSolver	1.234840e-03	1.019750e-04	2	1.234700e-03	1.019500e-04	2	8.292510e-04	6.786130e-05	2	false
87            	smoothSolver	1.201460e-03	9.927360e-05	2	1.201350e-03	9.924970e-05	2	8.090010e-04	6.623710e-05	2	false
88            	smoothSolver	1.167510e-03	9.660730e-05	2	1.167390e-03	9.658400e-05	2	7.894150e-04	6.466320e-05	2	false
89            	smoothSolver	1.134210e-03	9.392630e-05	2	1.134030e-03	9.389860e-05	2	7.704450e-04	6.313770e-05	2	false
90            	smoothSolver	1.102360e-03	9.126770e-05	2	1.102180e-03	9.123880e-05	2	7.520760e-04	6.165880e-05	2	false
91            	smoothSolver	1.071620e-03	8.867250e-05	2	1.071470e-03	8.864600e-05	2	7.342680e-04	6.022800e-05	2	false
92            	smoothSolver	1.041940e-03	8.617110e-05	2	1.041810e-03	8.614800e-05	2	7.169980e-04	5.884010e-05	2	false
93            	smoothSolver	1.013030e-03	8.374660e-05	2	1.012930e-03	8.372690e-05	2	7.002490e-04	5.749540e-05	2	false
94            	smoothSolver	9.849510e-04	8.144540e-05	2	9.848150e-04	8.142230e-05	2	6.839900e-04	5.619020e-05	2	false
95            	smoothSolver	9.585510e-04	7.927930e-05	2	9.584240e-04	7.925720e-05	2	6.682030e-04	5.492390e-05	2	false
96            	smoothSolver	9.339560e-04	7.723080e-05	2	9.338210e-04	7.720700e-05	2	6.528790e-04	5.369500e-05	2	false
97            	smoothSolver	9.105150e-04	7.529220e-05	2	9.104000e-04	7.526990e-05	2	6.379990e-04	5.250260e-05	2	false
98            	smoothSolver	8.876380e-04	7.346010e-05	2	8.875300e-04	7.343830e-05	2	6.235550e-04	5.134560e-05	2	false
99            	smoothSolver	8.647080e-04	7.168240e-05	2	8.646270e-04	7.166180e-05	2	6.095640e-04	5.022330e-05	2	false
100           	smoothSolver	8.421070e-04	6.993480e-05	2	8.420090e-04	6.991380e-05	2	5.959930e-04	4.913840e-05	2	false
101           	smoothSolver	8.207970e-04	6.822580e-05	2	8.206520e-04	6.820150e-05	2	5.828120e-04	4.809360e-05	2	false
102           	smoothSolver	8.008750e-04	6.655360e-05	2	8.007820e-04	6.653430e-05	2	5.699960e-04	4.710980e-05	2	false
103           	smoothSolver	7.819740e-04	6.490930e-05	2	7.819010e-04	6.489290e-05	2	5.576080e-04	4.616630e-05	2	false
104           	smoothSolver	7.634320e-04	6.327610e-05	2	7.633270e-04	6.325690e-05	2	5.456790e-04	4.525020e-05	2	false
105           	smoothSolver	7.447510e-04	6.163570e-05	2	7.446770e-04	6.161930e-05	2	5.343580e-04	4.436130e-05	2	false
106           	smoothSolver	7.260280e-04	6.000930e-05	2	7.259080e-04	5.998970e-05	2	5.236860e-04	4.350170e-05	2	false
107           	smoothSolver	7.072180e-04	5.841800e-05	2	7.071750e-04	5.840540e-05	2	5.133420e-04	4.266960e-05	2	false
108           	smoothSolver	6.886580e-04	5.687510e-05	2	6.885880e-04	5.685920e-05	2	5.033210e-04	4.186190e-05	2	false
109           	smoothSolver	6.710470e-04	5.541470e-05	2	6.709430e-04	5.539720e-05	2	4.935880e-04	4.107730e-05	2	false
110           	smoothSolver	6.537990e-04	5.404010e-05	2	6.537090e-04	5.402310e-05	2	4.841190e-04	4.031460e-05	2	false
111           	smoothSolver	6.360120e-04	5.270600e-05	2	6.359530e-04	5.269190e-05	2	4.749150e-04	3.957480e-05	2	false
112           	smoothSolver	6.185760e-04	5.140140e-05	2	6.185080e-04	5.138540e-05	2	4.659770e-04	3.886320e-05	2	false
113           	smoothSolver	6.025880e-04	5.011470e-05	2	6.024900e-04	5.009780e-05	2	4.572870e-04	3.819010e-05	2	false
114           	smoothSolver	5.878270e-04	4.887920e-05	2	5.877470e-04	4.886270e-05	2	4.488960e-04	3.756280e-05	2	false
115           	smoothSolver	5.738380e-04	4.770060e-05	2	5.737940e-04	4.768810e-05	2	4.408710e-04	3.695620e-05	2	false
116           	smoothSolver	5.603400e-04	4.656630e-05	2	5.603140e-04	4.655550e-05	2	4.332850e-04	3.636910e-05	2	false
117           	smoothSolver	5.470820e-04	4.542880e-05	2	5.469960e-04	4.541290e-05	2	4.262450e-04	3.580020e-05	2	false
118           	smoothSolver	5.339510e-04	4.428800e-05	2	5.338360e-04	4.427030e-05	2	4.194090e-04	3.524690e-05	2	false
119           	smoothSolver	5.208230e-04	4.316530e-05	2	5.207490e-04	4.315210e-05	2	4.127650e-04	3.471090e-05	2	false
120           	smoothSolver	5.079350e-04	4.206850e-05	2	5.078790e-04	4.205610e-05	2	4.063060e-04	3.419840e-05	2	false
121           	smoothSolver	4.955840e-04	4.102310e-05	2	4.955680e-04	4.101380e-05	2	4.000310e-04	3.371960e-05	2	false
122           	smoothSolver	4.830560e-04	4.000860e-05	2	4.830120e-04	3.999650e-05	2	3.940270e-04	3.327490e-05	2	false
123           	smoothSolver	4.700470e-04	3.899500e-05	2	4.699390e-04	3.897860e-05	2	3.883080e-04	3.284560e-05	2	false
124           	smoothSolver	4.573110e-04	3.797360e-05	2	4.572850e-04	3.796300e-05	2	3.830050e-04	3.242870e-05	2	false
125           	smoothSolver	4.454590e-04	3.697320e-05	2	4.454190e-04	3.696250e-05	2	3.780310e-04	3.202610e-05	2	false
126           	smoothSolver	4.341320e-04	3.601750e-05	2	4.340730e-04	3.600610e-05	2	3.731990e-04	3.164420e-05	2	false
127           	smoothSolver	4.233160e-04	3.511480e-05	2	4.232530e-04	3.510230e-05	2	3.685160e-04	3.129510e-05	2	false
128           	smoothSolver	4.129190e-04	3.424430e-05	2	4.129000e-04	3.423570e-05	2	3.640680e-04	3.096800e-05	2	false
129           	smoothSolver	4.028800e-04	3.339890e-05	2	4.028110e-04	3.338600e-05	2	3.598510e-04	3.065090e-05	2	false
130           	smoothSolver	3.930510e-04	3.257530e-05	2	3.930230e-04	3.256690e-05	2	3.560530e-04	3.034940e-05	2	false
131           	smoothSolver	3.834170e-04	3.178640e-05	2	3.833690e-04	3.177690e-05	2	3.524040e-04	3.007280e-05	2	false
132           	smoothSolver	3.742100e-04	3.103900e-05	2	3.740980e-04	3.102270e-05	2	3.489270e-04	2.981790e-05	2	false
133           	smoothSolver	3.655640e-04	3.032940e-05	2	3.655440e-04	3.032150e-05	2	3.456300e-04	2.957580e-05	2	false
134           	smoothSolver	3.569760e-04	2.963360e-05	2	3.569420e-04	2.962490e-05	2	3.426650e-04	2.935310e-05	2	false
135           	smoothSolver	3.480500e-04	2.892670e-05	2	3.480270e-04	2.891820e-05	2	3.399080e-04	2.915160e-05	2	false
136           	smoothSolver	3.394960e-04	2.820520e-05	2	3.394670e-04	2.819650e-05	2	3.372960e-04	2.896280e-05	2	false
137           	smoothSolver	3.312700e-04	2.749050e-05	2	3.312690e-04	2.748380e-05	2	3.349080e-04	2.879320e-05	2	false
138           	smoothSolver	3.233330e-04	2.680770e-05	2	3.232900e-04	2.679810e-05	2	3.327690e-04	2.863770e-05	2	false
139           	smoothSolver	3.156360e-04	2.615070e-05	2	3.155870e-04	2.614130e-05	2	3.307740e-04	2.849410e-05	2	false
140           	smoothSolver	3.080440e-04	2.550980e-05	2	3.080290e-04	2.550320e-05	2	3.290030e-04	2.835490e-05	2	false
141           	smoothSolver	3.005800e-04	2.488860e-05	2	3.005470e-04	2.488050e-05	2	3.273580e-04	2.821930e-05	2	false
142           	smoothSolver	2.932640e-04	2.428970e-05	2	2.932540e-04	2.428320e-05	2	3.258640e-04	2.808630e-05	2	false
143           	smoothSolver	2.862580e-04	2.371500e-05	2	2.862170e-04	2.370630e-05	2	3.244560e-04	2.795650e-05	2	false
144           	smoothSolver	2.796940e-04	2.317240e-05	2	2.796650e-04	2.316480e-05	2	3.231170e-04	2.783010e-05	2	false
145           	smoothSolver	2.734860e-04	2.267250e-05	2	2.734450e-04	2.266440e-05	2	3.218140e-04	2.770690e-05	2	false
146           	smoothSolver	2.672390e-04	2.219300e-05	2	2.672180e-04	2.218700e-05	2	3.205380e-04	2.758640e-05	2	false
147           	smoothSolver	2.611020e-04	2.170270e-05	2	2.610540e-04	2.169470e-05	2	3.192940e-04	2.746900e-05	2	false
148           	smoothSolver	2.552760e-04	2.119160e-05	2	2.552700e-04	2.118640e-05	2	3.180670e-04	2.735330e-05	2	false
149           	smoothSolver	2.495860e-04	2.068870e-05	2	2.495300e-04	2.067930e-05	2	3.168650e-04	2.724010e-05	2	false
150           	smoothSolver	2.440110e-04	2.019880e-05	2	2.439730e-04	2.019090e-05	2	3.157040e-04	2.713060e-05	2	false
151           	smoothSolver	2.384540e-04	1.971600e-05	2	2.384220e-04	1.971020e-05	2	3.145730e-04	2.702400e-05	2	false
152           	smoothSolver	2.328320e-04	1.923570e-05	2	2.327980e-04	1.922940e-05	2	3.134560e-04	2.691890e-05	2	false
153           	smoothSolver	2.271670e-04	1.876200e-05	2	2.271480e-04	1.875700e-05	2	3.123620e-04	2.681600e-05	2	false
154           	smoothSolver	2.215680e-04	1.830430e-05	2	2.215830e-04	1.830190e-05	2	3.112900e-04	2.671520e-05	2	false
155           	smoothSolver	2.161880e-04	1.786830e-05	2	2.161960e-04	1.786510e-05	2	3.102400e-04	2.661660e-05	2	false
156           	smoothSolver	2.110800e-04	1.745750e-05	2	2.110830e-04	1.745320e-05	2	3.092230e-04	2.652100e-05	2	false
157           	smoothSolver	2.061560e-04	1.707270e-05	2	2.060980e-04	1.706380e-05	2	3.082380e-04	2.642830e-05	2	false
158           	smoothSolver	2.011950e-04	1.669470e-05	2	2.011350e-04	1.668640e-05	2	3.072550e-04	2.633620e-05	2	false
159           	smoothSolver	1.964660e-04	1.631730e-05	2	1.964520e-04	1.631220e-05	2	3.062930e-04	2.624610e-05	2	false
160           	smoothSolver	1.920780e-04	1.595070e-05	2	1.920820e-04	1.594720e-05	2	3.053490e-04	2.615770e-05	2	false
161           	smoothSolver	1.878760e-04	1.558910e-05	2	1.879060e-04	1.558910e-05	2	3.044300e-04	2.607160e-05	2	false
162           	smoothSolver	1.838710e-04	1.523740e-05	2	1.838400e-04	1.523250e-05	2	3.035360e-04	2.598790e-05	2	false
163           	smoothSolver	1.799060e-04	1.489130e-05	2	1.798820e-04	1.488640e-05	2	3.026590e-04	2.590580e-05	2	false
164           	smoothSolver	1.759100e-04	1.454720e-05	2	1.758620e-04	1.454000e-05	2	3.018040e-04	2.582570e-05	2	false
165           	smoothSolver	1.718440e-04	1.420380e-05	2	1.718170e-04	1.419890e-05	2	3.009460e-04	2.574580e-05	2	false
166           	smoothSolver	1.677980e-04	1.386780e-05	2	1.677640e-04	1.386260e-05	2	3.001090e-04	2.566780e-05	2	false
167           	smoothSolver	1.638240e-04	1.354040e-05	2	1.638190e-04	1.353700e-05	2	2.992990e-04	2.559210e-05	2	false
168           	smoothSolver	1.600860e-04	1.323610e-05	2	1.600600e-04	1.323110e-05	2	2.985180e-04	2.551910e-05	2	false
169           	smoothSolver	1.562820e-04	1.293790e-05	2	1.562900e-04	1.293610e-05	2	2.977310e-04	2.544590e-05	2	false
170           	smoothSolver	1.525450e-04	1.264680e-05	2	1.525070e-04	1.264130e-05	2	2.969620e-04	2.537440e-05	2	false
171           	smoothSolver	1.489830e-04	1.235370e-05	2	1.489820e-04	1.235100e-05	2	2.962180e-04	2.530510e-05	2	false
172           	smoothSolver	1.455730e-04	1.207150e-05	2	1.455670e-04	1.206840e-05	2	2.954860e-04	2.523690e-05	2	false
173           	smoothSolver	1.423450e-04	1.180540e-05	2	1.423350e-04	1.180200e-05	2	2.947460e-04	2.516850e-05	2	false
174           	smoothSolver	1.392940e-04	1.155480e-05	2	1.392600e-04	1.154960e-05	2	2.940410e-04	2.510290e-05	2	false
175           	smoothSolver	1.363640e-04	1.130920e-05	2	1.363470e-04	1.130580e-05	2	2.933510e-04	2.503880e-05	2	false
176           	smoothSolver	1.334570e-04	1.106170e-05	2	1.334400e-04	1.105780e-05	2	2.926790e-04	2.497640e-05	2	false
177           	smoothSolver	1.305550e-04	1.081710e-05	2	1.305980e-04	1.081840e-05	2	2.920060e-04	2.491410e-05	2	false
178           	smoothSolver	1.277180e-04	1.058090e-05	2	1.276890e-04	1.057640e-05	2	2.913320e-04	2.485200e-05	2	false
179           	smoothSolver	1.249800e-04	1.035250e-05	2	1.249650e-04	1.034970e-05	2	2.906990e-04	2.479330e-05	2	false
180           	smoothSolver	1.222620e-04	1.012870e-05	2	1.222500e-04	1.012540e-05	2	2.900640e-04	2.473460e-05	2	false
181           	smoothSolver	1.195120e-04	9.907140e-06	2	1.195020e-04	9.904220e-06	2	2.894380e-04	2.467680e-05	2	false
182           	smoothSolver	1.168490e-04	9.684120e-06	2	1.168560e-04	9.683290e-06	2	2.888280e-04	2.462050e-05	2	false
183           	smoothSolver	1.142820e-04	9.464550e-06	2	1.142750e-04	9.462230e-06	2	2.882260e-04	2.456500e-05	2	false
184           	smoothSolver	1.117420e-04	9.250030e-06	2	1.117340e-04	9.247550e-06	2	2.876270e-04	2.450990e-05	2	false
185           	smoothSolver	1.092660e-04	9.043460e-06	2	1.092340e-04	9.039560e-06	2	2.870520e-04	2.445690e-05	2	false
186           	smoothSolver	1.068650e-04	8.846960e-06	2	1.068790e-04	8.847070e-06	2	2.864940e-04	2.440540e-05	2	false
187           	smoothSolver	1.045900e-04	8.665670e-06	2	1.046110e-04	8.666070e-06	2	2.859280e-04	2.435340e-05	2	false
188           	smoothSolver	1.023580e-04	8.489780e-06	2	1.023750e-04	8.490440e-06	2	2.853580e-04	2.430140e-05	2	false
189           	smoothSolver	1.002560e-04	8.321380e-06	2	1.002090e-04	8.315380e-06	2	2.848090e-04	2.425100e-05	2	false
190           	smoothSolver	9.823420e-05	8.154380e-06	2	9.819090e-05	8.148510e-06	2	2.842840e-04	2.420270e-05	2	false
191           	smoothSolver	9.630100e-05	7.990690e-06	2	9.628560e-05	7.988190e-06	2	2.837740e-04	2.415580e-05	2	false
192           	smoothSolver	9.435640e-05	7.830760e-06	2	9.441610e-05	7.834990e-06	2	2.832520e-04	2.410810e-05	2	false
193           	smoothSolver	9.251400e-05	7.677850e-06	2	9.252200e-05	7.677030e-06	2	2.827280e-04	2.406040e-05	2	false
194           	smoothSolver	9.069060e-05	7.517700e-06	2	9.068790e-05	7.516110e-06	2	2.822210e-04	2.401410e-05	2	false
195           	smoothSolver	8.886210e-05	7.356400e-06	2	8.881660e-05	7.351200e-06	2	2.817270e-04	2.396900e-05	2	false
196           	smoothSolver	8.703630e-05	7.197480e-06	2	8.697360e-05	7.191020e-06	2	2.812520e-04	2.392550e-05	2	false
197           	smoothSolver	8.527100e-05	7.045590e-06	2	8.526200e-05	7.043620e-06	2	2.807730e-04	2.388190e-05	2	false
198           	smoothSolver	8.349010e-05	6.895100e-06	2	8.353070e-05	6.897850e-06	2	2.803030e-04	2.383910e-05	2	false
199           	smoothSolver	8.173390e-05	6.750780e-06	2	8.178140e-05	6.754100e-06	2	2.798300e-04	2.379610e-05	2	false
200           	smoothSolver	8.002930e-05	6.615400e-06	2	8.007250e-05	6.617750e-06	2	2.793700e-04	2.375430e-05	2	false
201           	smoothSolver	7.843260e-05	6.493620e-06	2	7.836460e-05	6.486780e-06	2	2.789080e-04	2.371240e-05	2	false
202           	smoothSolver	7.687460e-05	6.374410e-06	2	7.676250e-05	6.363940e-06	2	2.784620e-04	2.367200e-05	2	false
203           	smoothSolver	7.534040e-05	6.255030e-06	2	7.529140e-05	6.249930e-06	2	2.780250e-04	2.363230e-05	2	false
204           	smoothSolver	7.385680e-05	6.136520e-06	2	7.389380e-05	6.139060e-06	2	2.776010e-04	2.359380e-05	2	false
205           	smoothSolver	7.248000e-05	6.018350e-06	2	7.253810e-05	6.022910e-06	2	2.771640e-04	2.355440e-05	2	false
206           	smoothSolver	7.115140e-05	5.901480e-06	2	7.117250e-05	5.902070e-06	2	2.767410e-04	2.351610e-05	2	false
207           	smoothSolver	6.985780e-05	5.787440e-06	2	6.982590e-05	5.783880e-06	2	2.763310e-04	2.347910e-05	2	false
208           	smoothSolver	6.857170e-05	5.676050e-06	2	6.853070e-05	5.671070e-06	2	2.759140e-04	2.344140e-05	2	false
209           	smoothSolver	6.732420e-05	5.568410e-06	2	6.729770e-05	5.565060e-06	2	2.755010e-04	2.340430e-05	2	false
210           	smoothSolver	6.602670e-05	5.458610e-06	2	6.606110e-05	5.461020e-06	2	2.750990e-04	2.336810e-05	2	false
211           	smoothSolver	6.476060e-05	5.353050e-06	2	6.476070e-05	5.352670e-06	2	2.746950e-04	2.333180e-05	2	false
212           	smoothSolver	6.351600e-05	5.250620e-06	2	6.352010e-05	5.250100e-06	2	2.743070e-04	2.329680e-05	2	false
213           	smoothSolver	6.232200e-05	5.152340e-06	2	6.233020e-05	5.152410e-06	2	2.739280e-04	2.326280e-05	2	false
214           	smoothSolver	6.117510e-05	5.059250e-06	2	6.115870e-05	5.057680e-06	2	2.735430e-04	2.322820e-05	2	false
215           	smoothSolver	6.006250e-05	4.972310e-06	2	6.006100e-05	4.972080e-06	2	2.731610e-04	2.319400e-05	2	false
216           	smoothSolver	5.899620e-05	4.889610e-06	2	5.893350e-05	4.883460e-06	2	2.727830e-04	2.316020e-05	2	false
217           	smoothSolver	5.793080e-05	4.802380e-06	2	5.794880e-05	4.803530e-06	2	2.724210e-04	2.312770e-05	2	false
218           	smoothSolver	5.692040e-05	4.716890e-06	2	5.696080e-05	4.719690e-06	2	2.720490e-04	2.309440e-05	2	false
219           	smoothSolver	5.604900e-05	4.640490e-06	2	5.601980e-05	4.637190e-06	2	2.716870e-04	2.306210e-05	2	false
220           	smoothSolver	5.514550e-05	4.562060e-06	2	5.511370e-05	4.558620e-06	2	2.713300e-04	2.303030e-05	2	false
221           	smoothSolver	5.424360e-05	4.484430e-06	2	5.422700e-05	4.482850e-06	2	2.709790e-04	2.299890e-05	2	false
222           	smoothSolver	5.333420e-05	4.407300e-06	2	5.332730e-05	4.406780e-06	2	2.706240e-04	2.296730e-05	2	false
223           	smoothSolver	5.238720e-05	4.329220e-06	2	5.240940e-05	4.330860e-06	2	2.702780e-04	2.293650e-05	2	false
224           	smoothSolver	5.153680e-05	4.259700e-06	2	5.151900e-05	4.257630e-06	2	2.699360e-04	2.290600e-05	2	false
225           	smoothSolver	5.069500e-05	4.190840e-06	2	5.065320e-05	4.186540e-06	2	2.695910e-04	2.287540e-05	2	false
226           	smoothSolver	4.985700e-05	4.122120e-06	2	4.983160e-05	4.119170e-06	2	2.692520e-04	2.284530e-05	2	false
227           	smoothSolver	4.903800e-05	4.053690e-06	2	4.901550e-05	4.050930e-06	2	2.689120e-04	2.281530e-05	2	false
228           	smoothSolver	4.818570e-05	3.981160e-06	2	4.821100e-05	3.982880e-06	2	2.685970e-04	2.278710e-05	2	false
229           	smoothSolver	4.734690e-05	3.910180e-06	2	4.738870e-05	3.913380e-06	2	2.682680e-04	2.275800e-05	2	false
230           	smoothSolver	4.657940e-05	3.847330e-06	2	4.658920e-05	3.848010e-06	2	2.679400e-04	2.272900e-05	2	false
231           	smoothSolver	4.583720e-05	3.789010e-06	2	4.582850e-05	3.787630e-06	2	2.676070e-04	2.269970e-05	2	false
232           	smoothSolver	4.512790e-05	3.733110e-06	2	4.510650e-05	3.730890e-06	2	2.673020e-04	2.267250e-05	2	false
233           	smoothSolver	4.444320e-05	3.677950e-06	2	4.442410e-05	3.675920e-06	2	2.669830e-04	2.264450e-05	2	false
234           	smoothSolver	4.373350e-05	3.620370e-06	2	4.373450e-05	3.619580e-06	2	2.666610e-04	2.261610e-05	2	false
235           	smoothSolver	4.306970e-05	3.565850e-06	2	4.308220e-05	3.566410e-06	2	2.663440e-04	2.258820e-05	2	false
236           	smoothSolver	4.247950e-05	3.517170e-06	2	4.243930e-05	3.513050e-06	2	2.660470e-04	2.256190e-05	2	false
237           	smoothSolver	4.187950e-05	3.468060e-06	2	4.187270e-05	3.466670e-06	2	2.657480e-04	2.253550e-05	2	false
238           	smoothSolver	4.124770e-05	3.415640e-06	2	4.125680e-05	3.416060e-06	2	2.654300e-04	2.250770e-05	2	false
239           	smoothSolver	4.067670e-05	3.364990e-06	2	4.067660e-05	3.364940e-06	2	2.651320e-04	2.248150e-05	2	false
240           	smoothSolver	4.005090e-05	3.309900e-06	2	4.008650e-05	3.312460e-06	2	2.648370e-04	2.245550e-05	2	false
241           	smoothSolver	3.953130e-05	3.263220e-06	2	3.953040e-05	3.263210e-06	2	2.645420e-04	2.242970e-05	2	false
242           	smoothSolver	3.897280e-05	3.214610e-06	2	3.896480e-05	3.212910e-06	2	2.642460e-04	2.240370e-05	2	false
243           	smoothSolver	3.845780e-05	3.170970e-06	2	3.845610e-05	3.170210e-06	2	2.639540e-04	2.237810e-05	2	false
244           	smoothSolver	3.788540e-05	3.122990e-06	2	3.789530e-05	3.123150e-06	2	2.636520e-04	2.235180e-05	2	false
245           	smoothSolver	3.735410e-05	3.080030e-06	2	3.730010e-05	3.075550e-06	2	2.633630e-04	2.232650e-05	2	false
246           	smoothSolver	3.681160e-05	3.036600e-06	2	3.677670e-05	3.033430e-06	2	2.630770e-04	2.230140e-05	2	false
247           	smoothSolver	3.627170e-05	2.993920e-06	2	3.629430e-05	2.995760e-06	2	2.627920e-04	2.227650e-05	2	false
248           	smoothSolver	3.581760e-05	2.955660e-06	2	3.582840e-05	2.956090e-06	2	2.625240e-04	2.225300e-05	2	false
249           	smoothSolver	3.540370e-05	2.920370e-06	2	3.539470e-05	2.919140e-06	2	2.622380e-04	2.222800e-05	2	false
250           	smoothSolver	3.497690e-05	2.885660e-06	2	3.496160e-05	2.883570e-06	2	2.619590e-04	2.220370e-05	2	false
251           	smoothSolver	3.451570e-05	2.846320e-06	2	3.451970e-05	2.845870e-06	2	2.616760e-04	2.217910e-05	2	false
252           	smoothSolver	3.406610e-05	2.808150e-06	2	3.408670e-05	2.809650e-06	2	2.613890e-04	2.215420e-05	2	false