/*--------------------------------*- C++ -*----------------------------------*\
| =========                 |                                                 |
| \\      /  F ield         | OpenFOAM: The Open Source CFD Toolbox           |
|  \\    /   O peration     | Version:  2312                                  |
|   \\  /    A nd           | Website:  www.openfoam.com                      |
|    \\/     M anipulation  |                                                 |
\*---------------------------------------------------------------------------*/
FoamFile
{
    version     2.0;
    format      ascii;
    arch        "LSB;label=32;scalar=64";
    class       volScalarField;
    location    "0";
    object      thickness;
}
// * * * * * * * * * * * * * * * * * * * * * * * * * * * * * * * * * * * * * //

dimensions      [0 0 0 0 0 0 0];

internalField   uniform 0;

boundaryField
{
    defaultFaces
    {
        type            empty;
    }
    walls
    {
        type            fixedValue;
        value           uniform 0;
    }
    inlet
    {
        type            fixedValue;
        value           nonuniform List<scalar> 
208
(
0.000998988
0.000998996
0.000998999
0.000998999
0.000998996
0.000998988
0.000998907
0.000998963
0.000998988
0.000998997
0.000998999
0.000998999
0.000998997
0.000998988
0.000998963
0.000998907
0.000998921
0.000998955
0.000998983
0.000998993
0.000998998
0.000998999
0.000998999
0.000998998
0.000998993
0.000998983
0.000998955
0.000998921
0.000998905
0.000998954
0.00099898
0.000998992
0.000998997
0.000998999
0.000999
0.000999
0.000998999
0.000998997
0.000998992
0.00099898
0.000998954
0.000998905
0.000998962
0.000998982
0.000998991
0.000998997
0.000998999
0.000999
0.000999
0.000999
0.000999
0.000998999
0.000998997
0.000998991
0.000998982
0.000998962
0.000998988
0.000998988
0.000998993
0.000998997
0.000998999
0.000999
0.000999
0.000999
0.000999
0.000999
0.000999
0.000998999
0.000998997
0.000998993
0.000998988
0.000998988
0.000998996
0.000998997
0.000998998
0.000998999
0.000999
0.000999
0.000999
0.000999
0.000999
0.000999
0.000999
0.000999
0.000998999
0.000998998
0.000998997
0.000998996
0.000998999
0.000998999
0.000998999
0.000999
0.000999
0.000999
0.000999
0.000999
0.000999
0.000999
0.000999
0.000999
0.000999
0.000998999
0.000998999
0.000998999
0.000998999
0.000998999
0.000998999
0.000999
0.000999
0.000999
0.000999
0.000999
0.000999
0.000999
0.000999
0.000999
0.000999
0.000998999
0.000998999
0.000998999
0.000998996
0.000998997
0.000998998
0.000998999
0.000999
0.000999
0.000999
0.000999
0.000999
0.000999
0.000999
0.000999
0.000998999
0.000998998
0.000998997
0.000998996
0.000998988
0.000998988
0.000998994
0.000998997
0.000998999
0.000999
0.000999
0.000999
0.000999
0.000999
0.000999
0.000998999
0.000998997
0.000998994
0.000998988
0.000998988
0.000998963
0.000998983
0.000998992
0.000998997
0.000998999
0.000999
0.000999
0.000999
0.000999
0.000998999
0.000998997
0.000998992
0.000998983
0.000998963
0.000998907
0.000998956
0.000998981
0.000998992
0.000998997
0.000998999
0.000999
0.000999
0.000998999
0.000998997
0.000998992
0.000998981
0.000998956
0.000998907
0.000998924
0.000998957
0.000998983
0.000998994
0.000998998
0.000998999
0.000998999
0.000998998
0.000998994
0.000998983
0.000998957
0.000998924
0.000998911
0.000998961
0.000998987
0.000998997
0.000998999
0.000998999
0.000998997
0.000998987
0.000998961
0.000998911
0.000998986
0.000998996
0.000998998
0.000998998
0.000998996
0.000998986
)
;
    }
    outlet
    {
        type            fixedValue;
        value           nonuniform List<scalar> 
208
(
0.000998981
0.000998994
0.000998997
0.000998997
0.000998994
0.000998981
0.000998885
0.000998949
0.000998983
0.000998995
0.000998998
0.000998998
0.000998995
0.000998983
0.000998949
0.000998885
0.000998909
0.000998946
0.000998978
0.000998991
0.000998997
0.000998999
0.000998999
0.000998997
0.000998992
0.000998978
0.000998946
0.000998909
0.000998883
0.000998946
0.000998976
0.00099899
0.000998996
0.000998999
0.000999
0.000999
0.000998999
0.000998996
0.00099899
0.000998976
0.000998945
0.000998883
0.000998949
0.000998978
0.00099899
0.000998996
0.000998999
0.000999
0.000999
0.000999
0.000999
0.000998999
0.000998996
0.00099899
0.000998978
0.000998949
0.000998981
0.000998983
0.000998991
0.000998996
0.000998999
0.000999
0.000999
0.000999
0.000999
0.000999
0.000999
0.000998999
0.000998996
0.000998991
0.000998983
0.000998981
0.000998994
0.000998995
0.000998997
0.000998999
0.000999
0.000999
0.000999
0.000999
0.000999
0.000999
0.000999
0.000999
0.000998999
0.000998997
0.000998995
0.000998994
0.000998997
0.000998998
0.000998999
0.000999
0.000999
0.000999
0.000999
0.000999
0.000999
0.000999
0.000999
0.000999
0.000999
0.000998999
0.000998998
0.000998997
0.000998997
0.000998998
0.000998999
0.000999
0.000999
0.000999
0.000999
0.000999
0.000999
0.000999
0.000999
0.000999
0.000998999
0.000998998
0.000998997
0.000998995
0.000998994
0.000998995
0.000998997
0.000998998
0.000998999
0.000999
0.000999
0.000999
0.000999
0.000999
0.000999
0.000998999
0.000998997
0.000998993
0.000998989
0.000998987
0.00099898
0.00099898
0.000998988
0.000998994
0.000998997
0.000998999
0.000999
0.000999
0.000999
0.000999
0.000998999
0.000998997
0.000998991
0.000998978
0.00099896
0.000998959
0.000998941
0.000998967
0.00099898
0.000998991
0.000998997
0.000998999
0.000999
0.000999
0.000999
0.000998998
0.000998992
0.000998976
0.000998944
0.000998869
0.000998854
0.000998908
0.000998948
0.000998974
0.00099899
0.000998997
0.000998999
0.000999
0.000998999
0.000998995
0.000998984
0.000998955
0.000998861
0.000998675
0.000998782
0.000998848
0.00099894
0.000998977
0.000998993
0.000998998
0.000998999
0.000998998
0.000998991
0.000998975
0.000998926
0.000998808
0.000998652
0.000998864
0.000998959
0.000998989
0.000998997
0.000998999
0.000998997
0.000998987
0.000998961
0.000998898
0.000998959
0.000998988
0.000998996
0.000998998
0.000998996
0.000998988
)
;
    }
}


// ************************************************************************* //
