/*--------------------------------*- C++ -*----------------------------------*\
| =========                 |                                                 |
| \\      /  F ield         | OpenFOAM: The Open Source CFD Toolbox           |
|  \\    /   O peration     | Version:  2312                                  |
|   \\  /    A nd           | Website:  www.openfoam.com                      |
|    \\/     M anipulation  |                                                 |
\*---------------------------------------------------------------------------*/
FoamFile
{
    version     2.0;
    format      ascii;
    arch        "LSB;label=32;scalar=64";
    class       volScalarField;
    location    "0";
    object      thicknessFraction;
}
// * * * * * * * * * * * * * * * * * * * * * * * * * * * * * * * * * * * * * //

dimensions      [0 0 0 0 0 0 0];

internalField   uniform 0;

boundaryField
{
    defaultFaces
    {
        type            empty;
    }
    walls
    {
        type            fixedValue;
        value           uniform 0;
    }
    inlet
    {
        type            fixedValue;
        value           nonuniform List<scalar> 
208
(
0.999988
0.999996
0.999999
0.999999
0.999996
0.999988
0.999907
0.999963
0.999988
0.999997
0.999999
0.999999
0.999997
0.999988
0.999963
0.999907
0.999921
0.999955
0.999983
0.999993
0.999998
0.999999
0.999999
0.999998
0.999993
0.999983
0.999955
0.999921
0.999905
0.999954
0.99998
0.999992
0.999997
0.999999
1
1
0.999999
0.999997
0.999992
0.99998
0.999954
0.999905
0.999962
0.999982
0.999991
0.999997
0.999999
1
1
1
1
0.999999
0.999997
0.999991
0.999982
0.999962
0.999988
0.999988
0.999993
0.999997
0.999999
1
1
1
1
1
1
0.999999
0.999997
0.999993
0.999988
0.999988
0.999996
0.999997
0.999998
0.999999
1
1
1
1
1
1
1
1
0.999999
0.999998
0.999997
0.999996
0.999999
0.999999
0.999999
1
1
1
1
1
1
1
1
1
1
0.999999
0.999999
0.999999
0.999999
0.999999
0.999999
1
1
1
1
1
1
1
1
1
1
0.999999
0.999999
0.999999
0.999996
0.999997
0.999998
0.999999
1
1
1
1
1
1
1
1
0.999999
0.999998
0.999997
0.999996
0.999988
0.999988
0.999994
0.999997
0.999999
1
1
1
1
1
1
0.999999
0.999997
0.999994
0.999988
0.999988
0.999963
0.999983
0.999992
0.999997
0.999999
1
1
1
1
0.999999
0.999997
0.999992
0.999983
0.999963
0.999907
0.999956
0.999981
0.999992
0.999997
0.999999
1
1
0.999999
0.999997
0.999992
0.999981
0.999956
0.999907
0.999924
0.999957
0.999983
0.999994
0.999998
0.999999
0.999999
0.999998
0.999994
0.999983
0.999957
0.999924
0.999911
0.999961
0.999987
0.999997
0.999999
0.999999
0.999997
0.999987
0.999961
0.999911
0.999986
0.999996
0.999998
0.999998
0.999996
0.999986
)
;
    }
    outlet
    {
        type            fixedValue;
        value           nonuniform List<scalar> 
208
(
0.999981
0.999994
0.999997
0.999997
0.999994
0.999981
0.999885
0.999949
0.999983
0.999995
0.999998
0.999998
0.999995
0.999983
0.999949
0.999885
0.999909
0.999946
0.999978
0.999991
0.999997
0.999999
0.999999
0.999997
0.999991
0.999978
0.999946
0.999909
0.999883
0.999946
0.999976
0.99999
0.999996
0.999999
1
1
0.999999
0.999996
0.99999
0.999976
0.999945
0.999883
0.999949
0.999978
0.99999
0.999996
0.999999
1
1
1
1
0.999999
0.999996
0.99999
0.999978
0.999949
0.999981
0.999983
0.999991
0.999996
0.999999
1
1
1
1
1
1
0.999999
0.999996
0.999991
0.999983
0.999981
0.999994
0.999995
0.999997
0.999999
1
1
1
1
1
1
1
1
0.999999
0.999997
0.999995
0.999994
0.999997
0.999998
0.999999
1
1
1
1
1
1
1
1
1
1
0.999999
0.999998
0.999997
0.999997
0.999998
0.999999
1
1
1
1
1
1
1
1
1
0.999999
0.999998
0.999997
0.999995
0.999994
0.999995
0.999997
0.999998
0.999999
1
1
1
1
1
1
0.999999
0.999997
0.999993
0.999989
0.999987
0.99998
0.99998
0.999988
0.999994
0.999997
0.999999
1
1
1
1
0.999999
0.999997
0.999991
0.999978
0.99996
0.999959
0.999941
0.999967
0.99998
0.999991
0.999997
0.999999
1
1
1
0.999998
0.999992
0.999976
0.999944
0.999869
0.999854
0.999908
0.999948
0.999974
0.99999
0.999997
0.999999
1
0.999999
0.999995
0.999984
0.999955
0.999861
0.999675
0.999781
0.999848
0.999939
0.999977
0.999993
0.999998
0.999999
0.999998
0.999991
0.999975
0.999926
0.999807
0.999652
0.999863
0.999959
0.999989
0.999997
0.999999
0.999997
0.999987
0.999961
0.999898
0.999959
0.999988
0.999996
0.999998
0.999996
0.999988
)
;
    }
}


// ************************************************************************* //
