# Wall heat-flux
# Time        	patch         	min           	max           	integral      
500           	walls	9.988826e+01	1.001043e+02	7.536468e+00
