# Wall heat-flux
# Time        	patch         	min           	max           	integral      
1             	walls	1.000000e+02	1.000000e+02	7.536378e+00
2             	walls	1.000000e+02	1.000000e+02	7.536378e+00
3             	walls	1.000000e+02	1.000000e+02	7.536378e+00
4             	walls	1.000000e+02	1.000000e+02	7.536378e+00
5             	walls	1.000000e+02	1.000000e+02	7.536378e+00
6             	walls	1.000000e+02	1.000000e+02	7.536378e+00
7             	walls	1.000000e+02	1.000000e+02	7.536378e+00
8             	walls	1.000000e+02	1.000000e+02	7.536378e+00
9             	walls	1.000000e+02	1.000000e+02	7.536378e+00
10            	walls	1.000000e+02	1.000000e+02	7.536378e+00
11            	walls	1.000000e+02	1.000000e+02	7.536378e+00
12            	walls	1.000000e+02	1.000000e+02	7.536378e+00
13            	walls	1.000000e+02	1.000000e+02	7.536378e+00
14            	walls	1.000000e+02	1.000000e+02	7.536378e+00
15            	walls	1.000000e+02	1.000000e+02	7.536378e+00
16            	walls	1.000000e+02	1.000000e+02	7.536378e+00
17            	walls	1.000000e+02	1.000000e+02	7.536378e+00
18            	walls	1.000000e+02	1.000000e+02	7.536378e+00
19            	walls	1.000000e+02	1.000000e+02	7.536378e+00
20            	walls	1.000000e+02	1.000000e+02	7.536378e+00
21            	walls	1.000000e+02	1.000000e+02	7.536378e+00
22            	walls	1.000000e+02	1.000000e+02	7.536378e+00
23            	walls	1.000000e+02	1.000000e+02	7.536378e+00
24            	walls	1.000000e+02	1.000000e+02	7.536378e+00
25            	walls	1.000000e+02	1.000000e+02	7.536378e+00
26            	walls	1.000000e+02	1.000000e+02	7.536378e+00
27            	walls	1.000000e+02	1.000000e+02	7.536378e+00
28            	walls	1.000000e+02	1.000000e+02	7.536378e+00
29            	walls	1.000000e+02	1.000000e+02	7.536378e+00
30            	walls	1.000000e+02	1.000000e+02	7.536378e+00
31            	walls	1.000000e+02	1.000000e+02	7.536378e+00
32            	walls	1.000000e+02	1.000000e+02	7.536378e+00
33            	walls	1.000000e+02	1.000000e+02	7.536378e+00
34            	walls	1.000000e+02	1.000000e+02	7.536378e+00
35            	walls	1.000000e+02	1.000000e+02	7.536378e+00
36            	walls	1.000000e+02	1.000000e+02	7.536378e+00
37            	walls	1.000000e+02	1.000000e+02	7.536378e+00
38            	walls	1.000000e+02	1.000000e+02	7.536378e+00
39            	walls	1.000000e+02	1.000000e+02	7.536378e+00
40            	walls	1.000000e+02	1.000000e+02	7.536378e+00
41            	walls	1.000000e+02	1.000000e+02	7.536378e+00
42            	walls	1.000000e+02	1.000000e+02	7.536378e+00
43            	walls	1.000000e+02	1.000000e+02	7.536378e+00
44            	walls	1.000000e+02	1.000000e+02	7.536378e+00
45            	walls	1.000000e+02	1.000000e+02	7.536378e+00
46            	walls	1.000000e+02	1.000000e+02	7.536378e+00
47            	walls	1.000000e+02	1.000000e+02	7.536378e+00
48            	walls	1.000000e+02	1.000000e+02	7.536378e+00
49            	walls	1.000000e+02	1.000000e+02	7.536378e+00
50            	walls	1.000000e+02	1.000000e+02	7.536378e+00
51            	walls	1.000000e+02	1.000000e+02	7.536378e+00
52            	walls	1.000000e+02	1.000000e+02	7.536378e+00
53            	walls	1.000000e+02	1.000000e+02	7.536378e+00
54            	walls	1.000000e+02	1.000000e+02	7.536378e+00
55            	walls	1.000000e+02	1.000000e+02	7.536378e+00
56            	walls	1.000000e+02	1.000000e+02	7.536378e+00
57            	walls	1.000000e+02	1.000000e+02	7.536378e+00
58            	walls	1.000000e+02	1.000000e+02	7.536378e+00
59            	walls	1.000000e+02	1.000000e+02	7.536378e+00
60            	walls	1.000000e+02	1.000000e+02	7.536378e+00
61            	walls	1.000000e+02	1.000000e+02	7.536378e+00
62            	walls	1.000000e+02	1.000000e+02	7.536378e+00
63            	walls	1.000000e+02	1.000000e+02	7.536378e+00
64            	walls	1.000000e+02	1.000000e+02	7.536378e+00
65            	walls	1.000000e+02	1.000000e+02	7.536378e+00
66            	walls	1.000000e+02	1.000000e+02	7.536378e+00
67            	walls	1.000000e+02	1.000000e+02	7.536378e+00
68            	walls	1.000000e+02	1.000000e+02	7.536378e+00
69            	walls	1.000000e+02	1.000000e+02	7.536378e+00
70            	walls	1.000000e+02	1.000000e+02	7.536378e+00
71            	walls	1.000000e+02	1.000000e+02	7.536378e+00
72            	walls	1.000000e+02	1.000000e+02	7.536378e+00
73            	walls	1.000000e+02	1.000000e+02	7.536378e+00
74            	walls	1.000000e+02	1.000000e+02	7.536378e+00
75            	walls	1.000000e+02	1.000000e+02	7.536378e+00
76            	walls	1.000000e+02	1.000000e+02	7.536378e+00
77            	walls	1.000000e+02	1.000000e+02	7.536378e+00
78            	walls	1.000000e+02	1.000000e+02	7.536378e+00
79            	walls	1.000000e+02	1.000000e+02	7.536378e+00
80            	walls	1.000000e+02	1.000000e+02	7.536378e+00
81            	walls	1.000000e+02	1.000000e+02	7.536378e+00
82            	walls	1.000000e+02	1.000000e+02	7.536378e+00
83            	walls	1.000000e+02	1.000000e+02	7.536378e+00
84            	walls	1.000000e+02	1.000000e+02	7.536378e+00
85            	walls	1.000000e+02	1.000000e+02	7.536378e+00
86            	walls	1.000000e+02	1.000000e+02	7.536378e+00
87            	walls	1.000000e+02	1.000000e+02	7.536378e+00
88            	walls	1.000000e+02	1.000000e+02	7.536378e+00
89            	walls	1.000000e+02	1.000000e+02	7.536378e+00
90            	walls	1.000000e+02	1.000000e+02	7.536378e+00
91            	walls	1.000000e+02	1.000000e+02	7.536378e+00
92            	walls	1.000000e+02	1.000000e+02	7.536378e+00
93            	walls	1.000000e+02	1.000000e+02	7.536378e+00
94            	walls	1.000000e+02	1.000000e+02	7.536378e+00
95            	walls	1.000000e+02	1.000000e+02	7.536378e+00
96            	walls	1.000000e+02	1.000000e+02	7.536378e+00
97            	walls	1.000000e+02	1.000000e+02	7.536378e+00
98            	walls	1.000000e+02	1.000000e+02	7.536378e+00
99            	walls	1.000000e+02	1.000000e+02	7.536378e+00
100           	walls	1.000000e+02	1.000000e+02	7.536378e+00
101           	walls	1.000000e+02	1.000000e+02	7.536378e+00
102           	walls	1.000000e+02	1.000000e+02	7.536378e+00
103           	walls	1.000000e+02	1.000000e+02	7.536378e+00
104           	walls	1.000000e+02	1.000000e+02	7.536378e+00
105           	walls	1.000000e+02	1.000000e+02	7.536378e+00
106           	walls	1.000000e+02	1.000000e+02	7.536378e+00
107           	walls	1.000000e+02	1.000000e+02	7.536378e+00
108           	walls	1.000000e+02	1.000000e+02	7.536378e+00
109           	walls	1.000000e+02	1.000000e+02	7.536378e+00
110           	walls	1.000000e+02	1.000000e+02	7.536378e+00
111           	walls	1.000000e+02	1.000000e+02	7.536378e+00
112           	walls	1.000000e+02	1.000000e+02	7.536378e+00
113           	walls	1.000000e+02	1.000000e+02	7.536378e+00
114           	walls	1.000000e+02	1.000000e+02	7.536378e+00
115           	walls	1.000000e+02	1.000000e+02	7.536378e+00
116           	walls	1.000000e+02	1.000000e+02	7.536378e+00
117           	walls	1.000000e+02	1.000000e+02	7.536378e+00
118           	walls	1.000000e+02	1.000000e+02	7.536378e+00
119           	walls	1.000000e+02	1.000000e+02	7.536378e+00
120           	walls	1.000000e+02	1.000000e+02	7.536378e+00
121           	walls	1.000000e+02	1.000000e+02	7.536378e+00
122           	walls	1.000000e+02	1.000000e+02	7.536378e+00
123           	walls	1.000000e+02	1.000000e+02	7.536378e+00
124           	walls	1.000000e+02	1.000000e+02	7.536378e+00
125           	walls	1.000000e+02	1.000000e+02	7.536378e+00
126           	walls	1.000000e+02	1.000000e+02	7.536378e+00
127           	walls	1.000000e+02	1.000000e+02	7.536378e+00
128           	walls	1.000000e+02	1.000000e+02	7.536378e+00
129           	walls	1.000000e+02	1.000000e+02	7.536378e+00
130           	walls	1.000000e+02	1.000000e+02	7.536378e+00
131           	walls	1.000000e+02	1.000000e+02	7.536378e+00
132           	walls	1.000000e+02	1.000000e+02	7.536378e+00
133           	walls	1.000000e+02	1.000000e+02	7.536378e+00
134           	walls	1.000000e+02	1.000000e+02	7.536378e+00
135           	walls	1.000000e+02	1.000000e+02	7.536378e+00
136           	walls	1.000000e+02	1.000000e+02	7.536378e+00
137           	walls	1.000000e+02	1.000000e+02	7.536378e+00
138           	walls	1.000000e+02	1.000000e+02	7.536378e+00
139           	walls	1.000000e+02	1.000000e+02	7.536378e+00
140           	walls	1.000000e+02	1.000000e+02	7.536378e+00
141           	walls	1.000000e+02	1.000000e+02	7.536378e+00
142           	walls	1.000000e+02	1.000000e+02	7.536378e+00
143           	walls	1.000000e+02	1.000000e+02	7.536378e+00
144           	walls	1.000000e+02	1.000000e+02	7.536378e+00
145           	walls	1.000000e+02	1.000000e+02	7.536378e+00
146           	walls	1.000000e+02	1.000000e+02	7.536378e+00
147           	walls	1.000000e+02	1.000000e+02	7.536378e+00
148           	walls	1.000000e+02	1.000000e+02	7.536378e+00
149           	walls	1.000000e+02	1.000000e+02	7.536378e+00
150           	walls	1.000000e+02	1.000000e+02	7.536378e+00
151           	walls	1.000000e+02	1.000000e+02	7.536378e+00
152           	walls	1.000000e+02	1.000000e+02	7.536378e+00
153           	walls	1.000000e+02	1.000000e+02	7.536378e+00
154           	walls	1.000000e+02	1.000000e+02	7.536378e+00
155           	walls	1.000000e+02	1.000000e+02	7.536378e+00
156           	walls	1.000000e+02	1.000000e+02	7.536378e+00
157           	walls	1.000000e+02	1.000000e+02	7.536378e+00
158           	walls	1.000000e+02	1.000000e+02	7.536378e+00
159           	walls	1.000000e+02	1.000000e+02	7.536378e+00
160           	walls	1.000000e+02	1.000000e+02	7.536378e+00
161           	walls	1.000000e+02	1.000000e+02	7.536378e+00
162           	walls	1.000000e+02	1.000000e+02	7.536378e+00
163           	walls	1.000000e+02	1.000000e+02	7.536378e+00
164           	walls	1.000000e+02	1.000000e+02	7.536378e+00
165           	walls	1.000000e+02	1.000000e+02	7.536378e+00
166           	walls	1.000000e+02	1.000000e+02	7.536378e+00
167           	walls	1.000000e+02	1.000000e+02	7.536378e+00
168           	walls	1.000000e+02	1.000000e+02	7.536378e+00
169           	walls	1.000000e+02	1.000000e+02	7.536378e+00
170           	walls	1.000000e+02	1.000000e+02	7.536378e+00
171           	walls	1.000000e+02	1.000000e+02	7.536378e+00
172           	walls	1.000000e+02	1.000000e+02	7.536378e+00
173           	walls	1.000000e+02	1.000000e+02	7.536378e+00
174           	walls	1.000000e+02	1.000000e+02	7.536378e+00
175           	walls	1.000000e+02	1.000000e+02	7.536378e+00
176           	walls	1.000000e+02	1.000000e+02	7.536378e+00
177           	walls	1.000000e+02	1.000000e+02	7.536378e+00
178           	walls	1.000000e+02	1.000000e+02	7.536378e+00
179           	walls	1.000000e+02	1.000000e+02	7.536378e+00
180           	walls	1.000000e+02	1.000000e+02	7.536378e+00
181           	walls	1.000000e+02	1.000000e+02	7.536378e+00
182           	walls	1.000000e+02	1.000000e+02	7.536378e+00
183           	walls	1.000000e+02	1.000000e+02	7.536378e+00
184           	walls	1.000000e+02	1.000000e+02	7.536378e+00
185           	walls	1.000000e+02	1.000000e+02	7.536378e+00
186           	walls	1.000000e+02	1.000000e+02	7.536378e+00
187           	walls	1.000000e+02	1.000000e+02	7.536378e+00
188           	walls	1.000000e+02	1.000000e+02	7.536378e+00
189           	walls	1.000000e+02	1.000000e+02	7.536378e+00
190           	walls	1.000000e+02	1.000000e+02	7.536378e+00
191           	walls	1.000000e+02	1.000000e+02	7.536378e+00
192           	walls	1.000000e+02	1.000000e+02	7.536378e+00
193           	walls	1.000000e+02	1.000000e+02	7.536378e+00
194           	walls	1.000000e+02	1.000000e+02	7.536378e+00
195           	walls	1.000000e+02	1.000000e+02	7.536378e+00
196           	walls	1.000000e+02	1.000000e+02	7.536378e+00
197           	walls	1.000000e+02	1.000000e+02	7.536378e+00
198           	walls	1.000000e+02	1.000000e+02	7.536378e+00
199           	walls	1.000000e+02	1.000000e+02	7.536378e+00
200           	walls	1.000000e+02	1.000000e+02	7.536378e+00
201           	walls	1.000000e+02	1.000000e+02	7.536378e+00
202           	walls	1.000000e+02	1.000000e+02	7.536378e+00
203           	walls	1.000000e+02	1.000000e+02	7.536378e+00
204           	walls	1.000000e+02	1.000000e+02	7.536378e+00
205           	walls	1.000000e+02	1.000000e+02	7.536378e+00
206           	walls	1.000000e+02	1.000000e+02	7.536378e+00
207           	walls	1.000000e+02	1.000000e+02	7.536378e+00
208           	walls	1.000000e+02	1.000000e+02	7.536378e+00
209           	walls	1.000000e+02	1.000000e+02	7.536378e+00
210           	walls	1.000000e+02	1.000000e+02	7.536378e+00
211           	walls	1.000000e+02	1.000000e+02	7.536378e+00
212           	walls	1.000000e+02	1.000000e+02	7.536378e+00
213           	walls	1.000000e+02	1.000000e+02	7.536378e+00
214           	walls	1.000000e+02	1.000000e+02	7.536378e+00
215           	walls	1.000000e+02	1.000000e+02	7.536378e+00
216           	walls	1.000000e+02	1.000000e+02	7.536378e+00
217           	walls	1.000000e+02	1.000000e+02	7.536378e+00
218           	walls	1.000000e+02	1.000000e+02	7.536378e+00
219           	walls	1.000000e+02	1.000000e+02	7.536378e+00
220           	walls	1.000000e+02	1.000000e+02	7.536378e+00
221           	walls	1.000000e+02	1.000000e+02	7.536378e+00
222           	walls	1.000000e+02	1.000000e+02	7.536378e+00
223           	walls	1.000000e+02	1.000000e+02	7.536378e+00
224           	walls	1.000000e+02	1.000000e+02	7.536378e+00
225           	walls	1.000000e+02	1.000000e+02	7.536378e+00
226           	walls	1.000000e+02	1.000000e+02	7.536378e+00
227           	walls	1.000000e+02	1.000000e+02	7.536378e+00
228           	walls	1.000000e+02	1.000000e+02	7.536378e+00
229           	walls	1.000000e+02	1.000000e+02	7.536378e+00
230           	walls	1.000000e+02	1.000000e+02	7.536378e+00
231           	walls	1.000000e+02	1.000000e+02	7.536378e+00
232           	walls	1.000000e+02	1.000000e+02	7.536378e+00
233           	walls	1.000000e+02	1.000000e+02	7.536378e+00
234           	walls	1.000000e+02	1.000000e+02	7.536378e+00
235           	walls	1.000000e+02	1.000000e+02	7.536378e+00
236           	walls	1.000000e+02	1.000000e+02	7.536378e+00
237           	walls	1.000000e+02	1.000000e+02	7.536378e+00
238           	walls	1.000000e+02	1.000000e+02	7.536378e+00
239           	walls	1.000000e+02	1.000000e+02	7.536378e+00
240           	walls	1.000000e+02	1.000000e+02	7.536378e+00
241           	walls	1.000000e+02	1.000000e+02	7.536378e+00
242           	walls	1.000000e+02	1.000000e+02	7.536378e+00
243           	walls	1.000000e+02	1.000000e+02	7.536378e+00
244           	walls	1.000000e+02	1.000000e+02	7.536378e+00
245           	walls	1.000000e+02	1.000000e+02	7.536378e+00
246           	walls	1.000000e+02	1.000000e+02	7.536378e+00
247           	walls	1.000000e+02	1.000000e+02	7.536378e+00
248           	walls	1.000000e+02	1.000000e+02	7.536378e+00
249           	walls	1.000000e+02	1.000000e+02	7.536378e+00
250           	walls	1.000000e+02	1.000000e+02	7.536378e+00
251           	walls	1.000000e+02	1.000000e+02	7.536378e+00
252           	walls	1.000000e+02	1.000000e+02	7.536378e+00
253           	walls	1.000000e+02	1.000000e+02	7.536378e+00
254           	walls	1.000000e+02	1.000000e+02	7.536378e+00
255           	walls	1.000000e+02	1.000000e+02	7.536378e+00
256           	walls	1.000000e+02	1.000000e+02	7.536378e+00
257           	walls	1.000000e+02	1.000000e+02	7.536378e+00
258           	walls	1.000000e+02	1.000000e+02	7.536378e+00
259           	walls	1.000000e+02	1.000000e+02	7.536378e+00
260           	walls	1.000000e+02	1.000000e+02	7.536378e+00
261           	walls	1.000000e+02	1.000000e+02	7.536378e+00
262           	walls	1.000000e+02	1.000000e+02	7.536378e+00
263           	walls	1.000000e+02	1.000000e+02	7.536378e+00
264           	walls	1.000000e+02	1.000000e+02	7.536378e+00
265           	walls	1.000000e+02	1.000000e+02	7.536378e+00
266           	walls	1.000000e+02	1.000000e+02	7.536378e+00
267           	walls	1.000000e+02	1.000000e+02	7.536378e+00
268           	walls	1.000000e+02	1.000000e+02	7.536378e+00
269           	walls	1.000000e+02	1.000000e+02	7.536378e+00
270           	walls	1.000000e+02	1.000000e+02	7.536378e+00
271           	walls	1.000000e+02	1.000000e+02	7.536378e+00
272           	walls	1.000000e+02	1.000000e+02	7.536378e+00
273           	walls	1.000000e+02	1.000000e+02	7.536378e+00
274           	walls	1.000000e+02	1.000000e+02	7.536378e+00
275           	walls	1.000000e+02	1.000000e+02	7.536378e+00
276           	walls	1.000000e+02	1.000000e+02	7.536378e+00
277           	walls	1.000000e+02	1.000000e+02	7.536378e+00
278           	walls	1.000000e+02	1.000000e+02	7.536378e+00
279           	walls	1.000000e+02	1.000000e+02	7.536378e+00
280           	walls	1.000000e+02	1.000000e+02	7.536378e+00
281           	walls	1.000000e+02	1.000000e+02	7.536378e+00
282           	walls	1.000000e+02	1.000000e+02	7.536378e+00
283           	walls	1.000000e+02	1.000000e+02	7.536378e+00
284           	walls	1.000000e+02	1.000000e+02	7.536378e+00
285           	walls	1.000000e+02	1.000000e+02	7.536378e+00
286           	walls	1.000000e+02	1.000000e+02	7.536378e+00
287           	walls	1.000000e+02	1.000000e+02	7.536378e+00
288           	walls	1.000000e+02	1.000000e+02	7.536378e+00
289           	walls	1.000000e+02	1.000000e+02	7.536378e+00
290           	walls	1.000000e+02	1.000000e+02	7.536378e+00
291           	walls	1.000000e+02	1.000000e+02	7.536378e+00
292           	walls	1.000000e+02	1.000000e+02	7.536378e+00
293           	walls	1.000000e+02	1.000000e+02	7.536378e+00
294           	walls	1.000000e+02	1.000000e+02	7.536378e+00
295           	walls	1.000000e+02	1.000000e+02	7.536378e+00
296           	walls	1.000000e+02	1.000000e+02	7.536378e+00
297           	walls	1.000000e+02	1.000000e+02	7.536378e+00
298           	walls	1.000000e+02	1.000000e+02	7.536378e+00
299           	walls	1.000000e+02	1.000000e+02	7.536378e+00
300           	walls	1.000000e+02	1.000000e+02	7.536378e+00
301           	walls	1.000000e+02	1.000000e+02	7.536378e+00
302           	walls	1.000000e+02	1.000000e+02	7.536378e+00
303           	walls	1.000000e+02	1.000000e+02	7.536378e+00
304           	walls	1.000000e+02	1.000000e+02	7.536378e+00
305           	walls	1.000000e+02	1.000000e+02	7.536378e+00
306           	walls	1.000000e+02	1.000000e+02	7.536378e+00
307           	walls	1.000000e+02	1.000000e+02	7.536378e+00
308           	walls	1.000000e+02	1.000000e+02	7.536378e+00
309           	walls	1.000000e+02	1.000000e+02	7.536378e+00
310           	walls	1.000000e+02	1.000000e+02	7.536378e+00
311           	walls	1.000000e+02	1.000000e+02	7.536378e+00
312           	walls	1.000000e+02	1.000000e+02	7.536378e+00
313           	walls	1.000000e+02	1.000000e+02	7.536378e+00
314           	walls	1.000000e+02	1.000000e+02	7.536378e+00
315           	walls	1.000000e+02	1.000000e+02	7.536378e+00
316           	walls	1.000000e+02	1.000000e+02	7.536378e+00
317           	walls	1.000000e+02	1.000000e+02	7.536378e+00
318           	walls	1.000000e+02	1.000000e+02	7.536378e+00
319           	walls	1.000000e+02	1.000000e+02	7.536378e+00
320           	walls	1.000000e+02	1.000000e+02	7.536378e+00
321           	walls	1.000000e+02	1.000000e+02	7.536378e+00
322           	walls	1.000000e+02	1.000000e+02	7.536378e+00
323           	walls	1.000000e+02	1.000000e+02	7.536378e+00
324           	walls	1.000000e+02	1.000000e+02	7.536378e+00
325           	walls	1.000000e+02	1.000000e+02	7.536378e+00
326           	walls	1.000000e+02	1.000000e+02	7.536378e+00
327           	walls	1.000000e+02	1.000000e+02	7.536378e+00
328           	walls	1.000000e+02	1.000000e+02	7.536378e+00
329           	walls	1.000000e+02	1.000000e+02	7.536378e+00
330           	walls	1.000000e+02	1.000000e+02	7.536378e+00
331           	walls	1.000000e+02	1.000000e+02	7.536378e+00
332           	walls	1.000000e+02	1.000000e+02	7.536378e+00
333           	walls	1.000000e+02	1.000000e+02	7.536378e+00
334           	walls	1.000000e+02	1.000000e+02	7.536378e+00
335           	walls	1.000000e+02	1.000000e+02	7.536378e+00
336           	walls	1.000000e+02	1.000000e+02	7.536378e+00
337           	walls	1.000000e+02	1.000000e+02	7.536378e+00
338           	walls	1.000000e+02	1.000000e+02	7.536378e+00
339           	walls	1.000000e+02	1.000000e+02	7.536378e+00
340           	walls	1.000000e+02	1.000000e+02	7.536378e+00
341           	walls	1.000000e+02	1.000000e+02	7.536378e+00
342           	walls	1.000000e+02	1.000000e+02	7.536378e+00
343           	walls	1.000000e+02	1.000000e+02	7.536378e+00
344           	walls	1.000000e+02	1.000000e+02	7.536378e+00
345           	walls	1.000000e+02	1.000000e+02	7.536378e+00
346           	walls	1.000000e+02	1.000000e+02	7.536378e+00
347           	walls	1.000000e+02	1.000000e+02	7.536378e+00
348           	walls	1.000000e+02	1.000000e+02	7.536378e+00
349           	walls	1.000000e+02	1.000000e+02	7.536378e+00
350           	walls	1.000000e+02	1.000000e+02	7.536378e+00
351           	walls	1.000000e+02	1.000000e+02	7.536378e+00
352           	walls	1.000000e+02	1.000000e+02	7.536378e+00
353           	walls	1.000000e+02	1.000000e+02	7.536378e+00
354           	walls	1.000000e+02	1.000000e+02	7.536378e+00
355           	walls	1.000000e+02	1.000000e+02	7.536378e+00
356           	walls	1.000000e+02	1.000000e+02	7.536378e+00
357           	walls	1.000000e+02	1.000000e+02	7.536378e+00
358           	walls	1.000000e+02	1.000000e+02	7.536378e+00
359           	walls	1.000000e+02	1.000000e+02	7.536378e+00
360           	walls	1.000000e+02	1.000000e+02	7.536378e+00
361           	walls	1.000000e+02	1.000000e+02	7.536378e+00
362           	walls	1.000000e+02	1.000000e+02	7.536378e+00
363           	walls	1.000000e+02	1.000000e+02	7.536378e+00
364           	walls	1.000000e+02	1.000000e+02	7.536378e+00
365           	walls	1.000000e+02	1.000000e+02	7.536378e+00
366           	walls	1.000000e+02	1.000000e+02	7.536378e+00
367           	walls	1.000000e+02	1.000000e+02	7.536378e+00
368           	walls	1.000000e+02	1.000000e+02	7.536378e+00
369           	walls	1.000000e+02	1.000000e+02	7.536378e+00
370           	walls	1.000000e+02	1.000000e+02	7.536378e+00
371           	walls	1.000000e+02	1.000000e+02	7.536378e+00
372           	walls	1.000000e+02	1.000000e+02	7.536378e+00
373           	walls	1.000000e+02	1.000000e+02	7.536378e+00
374           	walls	1.000000e+02	1.000000e+02	7.536378e+00
375           	walls	1.000000e+02	1.000000e+02	7.536378e+00
376           	walls	1.000000e+02	1.000000e+02	7.536378e+00
377           	walls	1.000000e+02	1.000000e+02	7.536378e+00
378           	walls	1.000000e+02	1.000000e+02	7.536378e+00
379           	walls	1.000000e+02	1.000000e+02	7.536378e+00
380           	walls	1.000000e+02	1.000000e+02	7.536378e+00
381           	walls	1.000000e+02	1.000000e+02	7.536378e+00
382           	walls	1.000000e+02	1.000000e+02	7.536378e+00
383           	walls	1.000000e+02	1.000000e+02	7.536378e+00
384           	walls	1.000000e+02	1.000000e+02	7.536378e+00
385           	walls	1.000000e+02	1.000000e+02	7.536378e+00
386           	walls	1.000000e+02	1.000000e+02	7.536378e+00
387           	walls	1.000000e+02	1.000000e+02	7.536378e+00
388           	walls	1.000000e+02	1.000000e+02	7.536378e+00
389           	walls	1.000000e+02	1.000000e+02	7.536378e+00
390           	walls	1.000000e+02	1.000000e+02	7.536378e+00
391           	walls	1.000000e+02	1.000000e+02	7.536378e+00
392           	walls	1.000000e+02	1.000000e+02	7.536378e+00
393           	walls	1.000000e+02	1.000000e+02	7.536378e+00
394           	walls	1.000000e+02	1.000000e+02	7.536378e+00
395           	walls	1.000000e+02	1.000000e+02	7.536378e+00
396           	walls	1.000000e+02	1.000000e+02	7.536378e+00
397           	walls	1.000000e+02	1.000000e+02	7.536378e+00
398           	walls	1.000000e+02	1.000000e+02	7.536378e+00
399           	walls	1.000000e+02	1.000000e+02	7.536378e+00
400           	walls	1.000000e+02	1.000000e+02	7.536378e+00
401           	walls	1.000000e+02	1.000000e+02	7.536378e+00
402           	walls	1.000000e+02	1.000000e+02	7.536378e+00
403           	walls	1.000000e+02	1.000000e+02	7.536378e+00
404           	walls	1.000000e+02	1.000000e+02	7.536378e+00
405           	walls	1.000000e+02	1.000000e+02	7.536378e+00
406           	walls	1.000000e+02	1.000000e+02	7.536378e+00
407           	walls	1.000000e+02	1.000000e+02	7.536378e+00
408           	walls	1.000000e+02	1.000000e+02	7.536378e+00
409           	walls	1.000000e+02	1.000000e+02	7.536378e+00
410           	walls	1.000000e+02	1.000000e+02	7.536378e+00
411           	walls	1.000000e+02	1.000000e+02	7.536378e+00
412           	walls	1.000000e+02	1.000000e+02	7.536378e+00
413           	walls	1.000000e+02	1.000000e+02	7.536378e+00
414           	walls	1.000000e+02	1.000000e+02	7.536378e+00
415           	walls	1.000000e+02	1.000000e+02	7.536378e+00
416           	walls	1.000000e+02	1.000000e+02	7.536378e+00
417           	walls	1.000000e+02	1.000000e+02	7.536378e+00
418           	walls	1.000000e+02	1.000000e+02	7.536378e+00
419           	walls	1.000000e+02	1.000000e+02	7.536378e+00
420           	walls	1.000000e+02	1.000000e+02	7.536378e+00
421           	walls	1.000000e+02	1.000000e+02	7.536378e+00
422           	walls	1.000000e+02	1.000000e+02	7.536378e+00
423           	walls	1.000000e+02	1.000000e+02	7.536378e+00
424           	walls	1.000000e+02	1.000000e+02	7.536378e+00
425           	walls	1.000000e+02	1.000000e+02	7.536378e+00
426           	walls	1.000000e+02	1.000000e+02	7.536378e+00
427           	walls	1.000000e+02	1.000000e+02	7.536378e+00
428           	walls	1.000000e+02	1.000000e+02	7.536378e+00
429           	walls	1.000000e+02	1.000000e+02	7.536378e+00
430           	walls	1.000000e+02	1.000000e+02	7.536378e+00
431           	walls	1.000000e+02	1.000000e+02	7.536378e+00
432           	walls	1.000000e+02	1.000000e+02	7.536378e+00
433           	walls	1.000000e+02	1.000000e+02	7.536378e+00
434           	walls	1.000000e+02	1.000000e+02	7.536378e+00
435           	walls	1.000000e+02	1.000000e+02	7.536378e+00
436           	walls	1.000000e+02	1.000000e+02	7.536378e+00
437           	walls	1.000000e+02	1.000000e+02	7.536378e+00
438           	walls	1.000000e+02	1.000000e+02	7.536378e+00
439           	walls	1.000000e+02	1.000000e+02	7.536378e+00
440           	walls	1.000000e+02	1.000000e+02	7.536378e+00
441           	walls	1.000000e+02	1.000000e+02	7.536378e+00
442           	walls	1.000000e+02	1.000000e+02	7.536378e+00
443           	walls	1.000000e+02	1.000000e+02	7.536378e+00
444           	walls	1.000000e+02	1.000000e+02	7.536378e+00
445           	walls	1.000000e+02	1.000000e+02	7.536378e+00
446           	walls	1.000000e+02	1.000000e+02	7.536378e+00
447           	walls	1.000000e+02	1.000000e+02	7.536378e+00
448           	walls	1.000000e+02	1.000000e+02	7.536378e+00
449           	walls	1.000000e+02	1.000000e+02	7.536378e+00
450           	walls	1.000000e+02	1.000000e+02	7.536378e+00
451           	walls	1.000000e+02	1.000000e+02	7.536378e+00
452           	walls	1.000000e+02	1.000000e+02	7.536378e+00
453           	walls	1.000000e+02	1.000000e+02	7.536378e+00
454           	walls	1.000000e+02	1.000000e+02	7.536378e+00
455           	walls	1.000000e+02	1.000000e+02	7.536378e+00
456           	walls	1.000000e+02	1.000000e+02	7.536378e+00
457           	walls	1.000000e+02	1.000000e+02	7.536378e+00
458           	walls	1.000000e+02	1.000000e+02	7.536378e+00
459           	walls	1.000000e+02	1.000000e+02	7.536378e+00
460           	walls	1.000000e+02	1.000000e+02	7.536378e+00
461           	walls	1.000000e+02	1.000000e+02	7.536378e+00
462           	walls	1.000000e+02	1.000000e+02	7.536378e+00
463           	walls	1.000000e+02	1.000000e+02	7.536378e+00
464           	walls	1.000000e+02	1.000000e+02	7.536378e+00
465           	walls	1.000000e+02	1.000000e+02	7.536378e+00
466           	walls	1.000000e+02	1.000000e+02	7.536378e+00
467           	walls	1.000000e+02	1.000000e+02	7.536378e+00
468           	walls	1.000000e+02	1.000000e+02	7.536378e+00
469           	walls	1.000000e+02	1.000000e+02	7.536378e+00
470           	walls	1.000000e+02	1.000000e+02	7.536378e+00
471           	walls	1.000000e+02	1.000000e+02	7.536378e+00
472           	walls	1.000000e+02	1.000000e+02	7.536378e+00
473           	walls	1.000000e+02	1.000000e+02	7.536378e+00
474           	walls	1.000000e+02	1.000000e+02	7.536378e+00
475           	walls	1.000000e+02	1.000000e+02	7.536378e+00
476           	walls	1.000000e+02	1.000000e+02	7.536378e+00
477           	walls	1.000000e+02	1.000000e+02	7.536378e+00
478           	walls	1.000000e+02	1.000000e+02	7.536378e+00
479           	walls	1.000000e+02	1.000000e+02	7.536378e+00
480           	walls	1.000000e+02	1.000000e+02	7.536378e+00
481           	walls	1.000000e+02	1.000000e+02	7.536378e+00
482           	walls	1.000000e+02	1.000000e+02	7.536378e+00
483           	walls	1.000000e+02	1.000000e+02	7.536378e+00
484           	walls	1.000000e+02	1.000000e+02	7.536378e+00
485           	walls	1.000000e+02	1.000000e+02	7.536378e+00
486           	walls	1.000000e+02	1.000000e+02	7.536378e+00
487           	walls	1.000000e+02	1.000000e+02	7.536378e+00
488           	walls	1.000000e+02	1.000000e+02	7.536378e+00
489           	walls	1.000000e+02	1.000000e+02	7.536378e+00
490           	walls	1.000000e+02	1.000000e+02	7.536378e+00
491           	walls	1.000000e+02	1.000000e+02	7.536378e+00
492           	walls	1.000000e+02	1.000000e+02	7.536378e+00
493           	walls	1.000000e+02	1.000000e+02	7.536378e+00
494           	walls	1.000000e+02	1.000000e+02	7.536378e+00
495           	walls	1.000000e+02	1.000000e+02	7.536378e+00
496           	walls	1.000000e+02	1.000000e+02	7.536378e+00
497           	walls	1.000000e+02	1.000000e+02	7.536378e+00
498           	walls	1.000000e+02	1.000000e+02	7.536378e+00